 Entering Gaussian System
 *********************************************
 Gaussian 98:
 frequency output generated by the xtb code
 *********************************************
                         Standard orientation:
 --------------------------------------------------------------------
  Center     Atomic     Atomic              Coordinates (Angstroms)
  Number     Number      Type              X           Y           Z
 --------------------------------------------------------------------
    1          6             0       -2.519719    1.867054    1.775855
    2         14             0       -1.112353    1.474229    2.953839
    3          8             0       -1.366195   -0.008865    3.667059
    4          6             0       -1.070014    2.833959    4.251125
    5          6             0        0.663633    3.692798    0.365558
    6         14             0        1.474464    2.346801    1.394196
    7          8             0        0.333115    1.389802    2.135397
    8          6             0        2.533810    3.202230    2.694052
    9          6             0        4.268055   -0.243224   -1.109323
   10         14             0        3.125183    1.245765   -1.043988
   11          8             0        2.432877    1.354814    0.464328
   12          6             0        4.165039    2.769877   -1.403425
   13          6             0        2.988092    0.224716   -4.727311
   14         14             0        1.618575    1.115704   -3.799818
   15          8             0        1.897493    1.093955   -2.158792
   16          6             0        1.559002    2.885260   -4.422657
   17          6             0       -2.244723    1.875575   -4.603353
   18         14             0       -1.445005    0.437408   -3.691423
   19          8             0        0.171402    0.341547   -4.081936
   20          6             0       -1.691375    0.727142   -1.859100
   21          6             0       -3.408633   -3.497125   -4.905507
   22         14             0       -1.880134   -2.623460   -4.236366
   23          8             0       -2.171449   -0.986063   -4.160034
   24          6             0       -0.472893   -2.981918   -5.429299
   25          6             0        0.432493   -5.320714   -2.614711
   26         14             0       -0.324580   -3.816136   -1.777219
   27          8             0       -1.556855   -3.183891   -2.701360
   28          6             0        1.045256   -2.561871   -1.528819
   29          6             0       -3.666518   -4.772993    0.601132
   30         14             0       -2.072950   -3.803642    0.835310
   31          8             0       -0.956608   -4.272845   -0.307225
   32          6             0       -2.493043   -1.983388    0.697784
   33          6             0        0.497297   -5.092895    4.289773
   34         14             0       -0.208118   -3.620588    3.347627
   35          8             0       -1.418588   -4.147154    2.330186
   36          6             0        1.213462   -2.855754    2.385551
   37          6             0       -1.866883   -0.701357    6.438262
   38         14             0       -0.797068   -0.957344    4.911384
   39          8             0       -0.877427   -2.548795    4.432361
   40          6             0        0.963087   -0.495233    5.383842
   41          1             0       -3.470197    1.914748    2.315381
   42          1             0       -2.357640    2.829360    1.281845
   43          1             0       -2.603811    1.096092    1.005988
   44          1             0       -1.998370    2.840911    4.829893
   45          1             0       -0.235432    2.686721    4.942567
   46          1             0       -0.954054    3.814156    3.779252
   47          1             0        0.023037    4.322751    0.989857
   48          1             0        1.418310    4.334597   -0.098150
   49          1             0        0.048726    3.260449   -0.427594
   50          1             0        1.924082    3.864820    3.315013
   51          1             0        3.011575    2.463384    3.344093
   52          1             0        3.316457    3.800003    2.217774
   53          1             0        5.063192   -0.148534   -0.363885
   54          1             0        3.714993   -1.163382   -0.902687
   55          1             0        4.732864   -0.335030   -2.095063
   56          1             0        4.928395    2.904263   -0.631385
   57          1             0        4.668939    2.674181   -2.369774
   58          1             0        3.542069    3.668392   -1.430677
   59          1             0        3.074378   -0.810354   -4.383618
   60          1             0        2.778050    0.212058   -5.800882
   61          1             0        3.950445    0.721249   -4.572662
   62          1             0        1.309705    2.911283   -5.487496
   63          1             0        0.804623    3.461315   -3.878775
   64          1             0        2.526950    3.376128   -4.285225
   65          1             0       -1.797288    2.825445   -4.296889
   66          1             0       -2.112724    1.764843   -5.683601
   67          1             0       -3.316847    1.916046   -4.389814
   68          1             0       -1.136353   -0.007143   -1.270714
   69          1             0       -1.343963    1.723480   -1.574744
   70          1             0       -2.750150    0.649616   -1.595356
   71          1             0       -3.240061   -4.576566   -4.960380
   72          1             0       -4.268478   -3.314725   -4.254343
   73          1             0       -3.651072   -3.133040   -5.908097
   74          1             0       -0.330676   -4.059909   -5.548012
   75          1             0       -0.690819   -2.557765   -6.414037
   76          1             0        0.465140   -2.547599   -5.071657
   77          1             0        1.175130   -5.787333   -1.960708
   78          1             0       -0.339000   -6.062176   -2.841947
   79          1             0        0.928964   -5.040489   -3.547775
   80          1             0        1.850522   -2.989161   -0.924329
   81          1             0        1.468633   -2.254191   -2.488843
   82          1             0        0.670505   -1.672609   -1.015069
   83          1             0       -4.400752   -4.496327    1.363350
   84          1             0       -4.098591   -4.570835   -0.383399
   85          1             0       -3.476947   -5.847480    0.679618
   86          1             0       -3.175981   -1.682903    1.497892
   87          1             0       -1.589210   -1.372856    0.772684
   88          1             0       -2.975894   -1.766219   -0.259321
   89          1             0        1.282799   -4.766687    4.977644
   90          1             0       -0.287617   -5.586429    4.870145
   91          1             0        0.925002   -5.822384    3.595901
   92          1             0        0.886546   -1.965225    1.840756
   93          1             0        2.025373   -2.566784    3.059094
   94          1             0        1.614825   -3.572098    1.662711
   95          1             0       -1.518708   -1.332052    7.261411
   96          1             0       -1.829829    0.342514    6.763357
   97          1             0       -2.908138   -0.958622    6.223303
   98          1             0        1.000114    0.516834    5.797369
   99          1             0        1.350270   -1.185827    6.138864
  100          1             0        1.624569   -0.531822    4.513781
 --------------------------------------------------------------------
     1 basis functions        1 primitive gaussians
     1 alpha electrons        1 beta electrons
 
 Harmonic frequencies (cm**-1), IR intensities (km*mol⁻¹),
 Raman scattering activities (A**4/amu), Raman depolarization ratios,
 reduced masses (AMU), force constants (mDyne/A) and normal coordinates:
                      1                      2                      3
                        a                      a                      a 
 Frequencies --    -4.6016                15.6999                19.1615
 Red. masses --    10.9068                11.3441                11.8590
 Frc consts  --     0.0000                 0.0000                 0.0000
 IR Inten    --     0.0083                 0.0061                 0.0103
 Raman Activ --     0.0000                 0.0000                 0.0000
 Depolar     --     0.0000                 0.0000                 0.0000
 Atom AN      X      Y      Z        X      Y      Z        X      Y      Z
   1   6     0.02  -0.02   0.01     0.03  -0.00  -0.00    -0.05  -0.02  -0.07
   2  14     0.02  -0.04   0.02     0.04  -0.00   0.00    -0.09   0.03  -0.07
   3   8     0.01  -0.03   0.01     0.01   0.01   0.02    -0.04   0.02  -0.05
   4   6     0.01  -0.03   0.02     0.04   0.02  -0.02    -0.12   0.03  -0.05
   5   6    -0.02  -0.08  -0.03     0.00  -0.11  -0.11    -0.02   0.03  -0.05
   6  14     0.00  -0.05   0.01     0.02  -0.06  -0.05    -0.06   0.08  -0.01
   7   8     0.02  -0.04   0.02     0.03  -0.03   0.00    -0.05   0.06  -0.02
   8   6    -0.02   0.02  -0.01    -0.01   0.05  -0.07    -0.08   0.08   0.01
   9   6     0.04  -0.01   0.01    -0.03  -0.13  -0.01    -0.04  -0.01   0.05
  10  14     0.02  -0.05   0.04     0.04  -0.13   0.02    -0.00   0.03   0.05
  11   8     0.03  -0.04   0.04     0.04  -0.07   0.02    -0.01   0.05   0.03
  12   6    -0.02  -0.02   0.01     0.09  -0.13   0.02     0.04  -0.01   0.03
  13   6    -0.01   0.03   0.00     0.01   0.39  -0.15     0.02   0.12   0.00
  14  14    -0.03  -0.04   0.07    -0.07   0.17   0.06    -0.00   0.09   0.04
  15   8     0.00  -0.06   0.05     0.02  -0.06   0.03     0.00   0.03   0.03
  16   6    -0.06  -0.01   0.09    -0.26   0.20   0.32    -0.05   0.07   0.08
  17   6     0.07  -0.10  -0.37    -0.02  -0.06  -0.09    -0.01   0.01   0.07
  18  14    -0.06   0.00  -0.15     0.00  -0.01  -0.05     0.03   0.00   0.04
  19   8    -0.01  -0.05   0.05     0.01   0.03  -0.00     0.02   0.03   0.01
  20   6    -0.24   0.25  -0.16    -0.03   0.04  -0.04     0.04  -0.04   0.04
  21   6    -0.04  -0.03   0.01     0.04  -0.03  -0.03     0.07  -0.00  -0.04
  22  14    -0.04  -0.06  -0.00     0.04  -0.04  -0.01     0.06   0.01   0.01
  23   8    -0.02  -0.04  -0.01     0.03  -0.03  -0.01     0.03   0.00   0.02
  24   6    -0.03  -0.05  -0.01     0.05  -0.03   0.02     0.08   0.03   0.05
  25   6     0.26   0.19   0.05    -0.14  -0.16   0.00    -0.10  -0.09   0.01
  26  14     0.02   0.13   0.04    -0.02  -0.13  -0.02    -0.03  -0.09   0.02
  27   8    -0.03  -0.05  -0.01     0.01  -0.03  -0.00     0.01  -0.00   0.02
  28   6    -0.17   0.27   0.10     0.08  -0.17  -0.07     0.04  -0.12   0.01
  29   6    -0.05   0.17  -0.03    -0.03   0.11   0.05    -0.07   0.06  -0.02
  30  14     0.04   0.08  -0.00     0.03   0.06   0.01    -0.05  -0.01   0.02
  31   8     0.01  -0.00  -0.00    -0.01  -0.03   0.01    -0.04  -0.04   0.02
  32   6     0.16   0.08   0.01     0.10   0.05  -0.03     0.05   0.01   0.04
  33   6    -0.09  -0.08   0.04     0.06   0.05  -0.03    -0.22  -0.10   0.15
  34  14    -0.01  -0.07   0.03     0.02   0.07   0.01    -0.07  -0.14   0.04
  35   8    -0.00  -0.00  -0.00     0.02   0.04   0.01    -0.06  -0.06   0.02
  36   6     0.05  -0.11   0.06    -0.01   0.11   0.01     0.06  -0.30   0.02
  37   6     0.08  -0.01   0.03    -0.11   0.00  -0.02     0.34   0.08   0.06
  38  14     0.05  -0.04   0.01    -0.05   0.02   0.06     0.16   0.05  -0.14
  39   8     0.01  -0.03   0.01    -0.00   0.01   0.03     0.02   0.02  -0.06
  40   6     0.05  -0.03  -0.05    -0.06   0.02   0.13     0.18   0.03  -0.38
  41   1     0.00  -0.00   0.00     0.01  -0.00  -0.00    -0.02  -0.01  -0.02
  42   1     0.01  -0.00   0.00     0.01   0.00  -0.00    -0.01  -0.01  -0.02
  43   1     0.01  -0.00   0.00     0.01   0.00  -0.00    -0.01  -0.01  -0.02
  44   1     0.00  -0.01   0.00     0.01   0.01  -0.00    -0.04   0.00  -0.02
  45   1     0.00  -0.01   0.00     0.01   0.01  -0.01    -0.04   0.01  -0.01
  46   1     0.00  -0.01   0.01     0.01   0.00  -0.01    -0.04   0.01  -0.01
  47   1    -0.01  -0.02  -0.02    -0.01  -0.03  -0.04    -0.01   0.01  -0.02
  48   1    -0.01  -0.02  -0.01    -0.00  -0.03  -0.04    -0.00   0.00  -0.02
  49   1    -0.00  -0.03  -0.01     0.01  -0.05  -0.03    -0.00   0.00  -0.02
  50   1    -0.01   0.01  -0.01    -0.01   0.02  -0.03    -0.03   0.02  -0.00
  51   1    -0.00   0.01   0.00     0.00   0.03  -0.01    -0.02   0.03   0.01
  52   1    -0.01   0.01  -0.01    -0.01   0.02  -0.03    -0.02   0.03   0.01
  53   1     0.01   0.00   0.00    -0.01  -0.05  -0.01    -0.01  -0.01   0.02
  54   1     0.02  -0.01   0.00    -0.02  -0.03  -0.01    -0.02   0.00   0.02
  55   1     0.01   0.00   0.00    -0.01  -0.04  -0.01    -0.01  -0.01   0.02
  56   1    -0.00  -0.00   0.00     0.03  -0.05   0.01     0.01  -0.01   0.01
  57   1    -0.01  -0.00   0.00     0.02  -0.04   0.01     0.01  -0.01   0.01
  58   1    -0.01  -0.01   0.00     0.03  -0.03   0.01     0.02   0.00   0.01
  59   1     0.00   0.01  -0.01     0.03   0.10  -0.08     0.01   0.03  -0.01
  60   1    -0.01   0.01   0.00    -0.01   0.15  -0.04     0.01   0.04   0.00
  61   1    -0.01   0.01   0.00    -0.01   0.13  -0.04     0.00   0.04   0.00
  62   1    -0.02   0.00   0.03    -0.09   0.10   0.10    -0.02   0.03   0.02
  63   1    -0.02  -0.01   0.03    -0.08   0.01   0.13    -0.02   0.01   0.03
  64   1    -0.02   0.00   0.03    -0.09   0.08   0.10    -0.02   0.03   0.02
  65   1     0.02  -0.02  -0.13    -0.01  -0.01  -0.03    -0.00   0.00   0.02
  66   1     0.05  -0.07  -0.10    -0.00  -0.03  -0.02    -0.01   0.01   0.02
  67   1     0.02  -0.02  -0.13    -0.01  -0.02  -0.03    -0.00   0.00   0.02
  68   1    -0.08   0.10  -0.00    -0.01   0.02  -0.00     0.01  -0.02   0.00
  69   1    -0.09   0.09  -0.08    -0.02   0.02  -0.02     0.01  -0.01   0.02
  70   1    -0.07   0.07  -0.07    -0.01   0.01  -0.01     0.01  -0.01   0.01
  71   1    -0.01  -0.01   0.00     0.01  -0.01  -0.01     0.02  -0.00  -0.01
  72   1    -0.01  -0.01   0.00     0.01  -0.01  -0.01     0.01  -0.00  -0.02
  73   1    -0.01  -0.01   0.00     0.01  -0.01  -0.01     0.03   0.00  -0.01
  74   1    -0.01  -0.01  -0.00     0.01  -0.01   0.00     0.03   0.01   0.01
  75   1    -0.01  -0.02  -0.00     0.02  -0.01   0.00     0.03   0.01   0.01
  76   1    -0.01  -0.01  -0.01     0.01  -0.01   0.01     0.02   0.01   0.02
  77   1     0.08   0.08   0.02    -0.05  -0.06  -0.00    -0.03  -0.03   0.00
  78   1     0.10   0.03   0.00    -0.06  -0.03   0.01    -0.04  -0.02   0.01
  79   1     0.08   0.08   0.02    -0.04  -0.06  -0.00    -0.03  -0.03   0.00
  80   1    -0.04   0.11   0.03     0.02  -0.06  -0.02     0.01  -0.05   0.01
  81   1    -0.05   0.10   0.03     0.02  -0.07  -0.03     0.02  -0.04   0.00
  82   1    -0.09   0.06   0.03     0.04  -0.04  -0.03     0.02  -0.03   0.00
  83   1    -0.01   0.06  -0.01    -0.00   0.04   0.02    -0.02   0.02  -0.01
  84   1    -0.01   0.06  -0.01    -0.01   0.03   0.01    -0.01   0.03  -0.01
  85   1    -0.03   0.05  -0.01    -0.02   0.03   0.02    -0.03   0.02  -0.01
  86   1     0.05   0.04   0.01     0.03   0.03  -0.01     0.02   0.01   0.01
  87   1     0.06   0.01   0.00     0.04   0.00  -0.01     0.02  -0.01   0.01
  88   1     0.05   0.03   0.00     0.03   0.01  -0.01     0.01   0.01   0.01
  89   1    -0.03  -0.03   0.02     0.02   0.01  -0.01    -0.07  -0.03   0.05
  90   1    -0.04  -0.01   0.01     0.02   0.01  -0.01    -0.08  -0.00   0.04
  91   1    -0.03  -0.03   0.01     0.02   0.02  -0.01    -0.07  -0.05   0.06
  92   1     0.03  -0.03   0.01    -0.01   0.03   0.01     0.05  -0.09  -0.01
  93   1     0.01  -0.04   0.02    -0.00   0.03   0.00     0.02  -0.10   0.00
  94   1     0.01  -0.04   0.02     0.00   0.04  -0.00     0.00  -0.11   0.02
  95   1     0.03  -0.00   0.01    -0.04   0.00  -0.00     0.13   0.02   0.01
  96   1     0.03  -0.00   0.01    -0.04   0.00  -0.00     0.12   0.03   0.01
  97   1     0.02  -0.00   0.02    -0.03  -0.00  -0.02     0.09   0.03   0.06
  98   1     0.02  -0.01  -0.02    -0.02   0.00   0.04     0.07   0.01  -0.12
  99   1     0.02  -0.01  -0.02    -0.03   0.00   0.04     0.08   0.01  -0.12
 100   1     0.01  -0.01  -0.02    -0.01   0.01   0.05     0.02  -0.00  -0.14
                      4                      5                      6
                        a                      a                      a 
 Frequencies --    20.2661                21.9933                25.8772
 Red. masses --    13.7678                11.7579                11.5902
 Frc consts  --     0.0000                 0.0000                 0.0000
 IR Inten    --     0.0053                 0.0004                 0.0025
 Raman Activ --     0.0000                 0.0000                 0.0000
 Depolar     --     0.0000                 0.0000                 0.0000
 Atom AN      X      Y      Z        X      Y      Z        X      Y      Z
   1   6     0.04   0.02  -0.00     0.04   0.03   0.01     0.03   0.02   0.13
   2  14     0.09  -0.04  -0.06     0.09   0.03  -0.02     0.10  -0.02   0.11
   3   8     0.04  -0.03  -0.05     0.07   0.01  -0.04     0.08  -0.04   0.05
   4   6     0.12  -0.04  -0.02     0.07  -0.00   0.01     0.11  -0.06   0.11
   5   6     0.07   0.06   0.07    -0.08  -0.14  -0.28    -0.23  -0.13  -0.17
   6  14     0.08  -0.05  -0.06    -0.00   0.08  -0.13    -0.09   0.08  -0.11
   7   8     0.05  -0.05  -0.07     0.07   0.05  -0.02     0.05   0.01   0.04
   8   6     0.12  -0.15  -0.02    -0.11   0.31  -0.17    -0.10   0.30  -0.20
   9   6     0.05   0.09  -0.18     0.01  -0.08   0.05     0.04   0.10  -0.01
  10  14     0.01   0.08  -0.18     0.12  -0.04   0.05    -0.01   0.10  -0.03
  11   8     0.01  -0.01  -0.13     0.10   0.03   0.03    -0.01   0.06  -0.02
  12   6    -0.05   0.10  -0.08     0.14  -0.08  -0.01    -0.06   0.10  -0.03
  13   6    -0.02   0.17  -0.16    -0.00   0.05  -0.00    -0.00  -0.14   0.05
  14  14    -0.04   0.13  -0.16     0.03   0.03   0.08     0.03  -0.05  -0.04
  15   8     0.00   0.06  -0.13     0.07  -0.01   0.05    -0.00   0.04  -0.02
  16   6    -0.11   0.10  -0.04    -0.01   0.04   0.11     0.10  -0.07  -0.14
  17   6    -0.11  -0.01   0.11     0.03   0.06   0.12     0.01   0.03   0.00
  18  14     0.01  -0.01   0.02     0.01  -0.00   0.08    -0.00   0.02  -0.01
  19   8    -0.01   0.05  -0.11     0.02   0.02   0.08    -0.00   0.01  -0.01
  20   6     0.14  -0.07   0.04    -0.06  -0.13   0.06    -0.00  -0.00  -0.01
  21   6     0.09  -0.05  -0.00    -0.04   0.04   0.01     0.05  -0.01  -0.04
  22  14     0.09  -0.02   0.05    -0.03   0.02  -0.01     0.04   0.03  -0.02
  23   8     0.03  -0.02   0.02     0.01   0.02  -0.03    -0.01   0.02  -0.01
  24   6     0.10   0.01   0.07    -0.04  -0.03  -0.01     0.05   0.06   0.01
  25   6     0.13   0.09   0.09     0.12   0.14   0.02    -0.14  -0.10  -0.02
  26  14     0.04   0.06   0.12    -0.01   0.11   0.03    -0.01  -0.05  -0.03
  27   8     0.04   0.00   0.05    -0.03   0.02  -0.01     0.02   0.03  -0.00
  28   6    -0.04   0.09   0.15    -0.10   0.16   0.09     0.09  -0.13  -0.05
  29   6    -0.03  -0.00  -0.03     0.05  -0.28  -0.01    -0.07   0.23  -0.04
  30  14    -0.05  -0.03   0.05    -0.09  -0.15   0.00     0.03   0.11   0.00
  31   8    -0.01   0.00   0.06    -0.02   0.02  -0.00    -0.01   0.01  -0.00
  32   6    -0.02  -0.01   0.07    -0.27  -0.14   0.03     0.19   0.11   0.06
  33   6    -0.21  -0.09   0.15    -0.02  -0.00   0.01    -0.10  -0.10   0.03
  34  14    -0.14  -0.12   0.12    -0.04  -0.03  -0.02    -0.03  -0.10   0.05
  35   8    -0.08  -0.06   0.05    -0.04  -0.05   0.00    -0.01  -0.02  -0.00
  36   6    -0.01  -0.17   0.13    -0.04  -0.04  -0.04     0.04  -0.10   0.09
  37   6    -0.15   0.05  -0.07    -0.03   0.03  -0.06    -0.09  -0.07  -0.01
  38  14    -0.10  -0.03   0.00     0.01  -0.01  -0.04    -0.01  -0.10   0.08
  39   8    -0.10  -0.03   0.03    -0.02  -0.01  -0.03    -0.01  -0.07   0.03
  40   6    -0.07  -0.09   0.11     0.01  -0.06   0.03    -0.03  -0.12   0.17
  41   1     0.01   0.01   0.00     0.02   0.01   0.01     0.01   0.00   0.05
  42   1     0.01   0.01   0.00     0.01   0.01   0.00     0.00   0.01   0.04
  43   1     0.01   0.01  -0.00     0.01   0.01   0.00     0.00   0.01   0.03
  44   1     0.04  -0.01  -0.00     0.02  -0.00   0.01     0.04  -0.02   0.04
  45   1     0.04  -0.02  -0.01     0.02  -0.00   0.00     0.04  -0.02   0.03
  46   1     0.04  -0.01  -0.00     0.02   0.00   0.01     0.03  -0.01   0.04
  47   1     0.03   0.01   0.04    -0.04  -0.03  -0.11    -0.08  -0.04  -0.06
  48   1     0.02   0.02   0.03    -0.03  -0.04  -0.10    -0.09  -0.03  -0.07
  49   1     0.01   0.04   0.02    -0.01  -0.08  -0.07    -0.06  -0.07  -0.04
  50   1     0.04  -0.04   0.01    -0.05   0.09  -0.07    -0.04   0.09  -0.07
  51   1     0.03  -0.06  -0.02    -0.01   0.12  -0.03    -0.01   0.12  -0.04
  52   1     0.04  -0.05  -0.00    -0.05   0.10  -0.07    -0.05   0.09  -0.08
  53   1     0.02   0.03  -0.05     0.00  -0.03   0.01     0.01   0.04  -0.00
  54   1     0.02   0.02  -0.06    -0.01  -0.02   0.02     0.02   0.03  -0.00
  55   1     0.01   0.04  -0.05     0.00  -0.03   0.01     0.01   0.03  -0.00
  56   1    -0.02   0.03  -0.02     0.04  -0.03  -0.00    -0.02   0.04  -0.01
  57   1    -0.01   0.04  -0.02     0.04  -0.03  -0.00    -0.02   0.03  -0.01
  58   1    -0.02   0.02  -0.02     0.05  -0.02  -0.01    -0.03   0.02  -0.01
  59   1     0.01   0.05  -0.06     0.00   0.01  -0.01    -0.01  -0.04   0.03
  60   1    -0.01   0.06  -0.05    -0.01   0.02   0.00     0.00  -0.05   0.01
  61   1    -0.01   0.05  -0.05    -0.00   0.01  -0.00     0.00  -0.05   0.01
  62   1    -0.04   0.04  -0.01    -0.01   0.02   0.03     0.04  -0.04  -0.04
  63   1    -0.04   0.02  -0.00    -0.00   0.00   0.04     0.03  -0.00  -0.05
  64   1    -0.04   0.04  -0.01    -0.00   0.01   0.03     0.03  -0.03  -0.04
  65   1    -0.04  -0.00   0.04     0.02   0.01   0.05     0.00   0.01   0.00
  66   1    -0.05   0.01   0.03     0.01   0.03   0.03     0.00   0.01   0.00
  67   1    -0.03  -0.02   0.05     0.01   0.02   0.04     0.00   0.01   0.00
  68   1     0.04  -0.03  -0.01    -0.02  -0.05   0.01     0.00   0.00  -0.00
  69   1     0.05  -0.03   0.01    -0.02  -0.04   0.04    -0.01   0.00  -0.00
  70   1     0.04  -0.02   0.03    -0.02  -0.05   0.01    -0.00  -0.00  -0.00
  71   1     0.03  -0.01  -0.00    -0.02   0.01   0.00     0.02  -0.00  -0.01
  72   1     0.02  -0.02  -0.01    -0.01   0.02   0.01     0.01  -0.01  -0.02
  73   1     0.03  -0.01  -0.00    -0.01   0.01   0.00     0.02  -0.00  -0.01
  74   1     0.03   0.00   0.02    -0.02  -0.01   0.00     0.02   0.02  -0.00
  75   1     0.03   0.00   0.02    -0.01  -0.01  -0.01     0.02   0.02   0.00
  76   1     0.02   0.01   0.03    -0.01  -0.01  -0.01     0.01   0.02   0.01
  77   1     0.04   0.03   0.03     0.04   0.05   0.01    -0.04  -0.04  -0.01
  78   1     0.05   0.01   0.02     0.05   0.03  -0.00    -0.06  -0.01  -0.00
  79   1     0.04   0.03   0.03     0.04   0.05   0.01    -0.04  -0.04  -0.01
  80   1    -0.01   0.03   0.05    -0.02   0.05   0.02     0.02  -0.05  -0.01
  81   1    -0.01   0.04   0.05    -0.03   0.06   0.03     0.03  -0.05  -0.02
  82   1    -0.02   0.02   0.05    -0.05   0.03   0.03     0.04  -0.03  -0.02
  83   1    -0.01  -0.00  -0.01     0.01  -0.10  -0.00    -0.02   0.08  -0.02
  84   1    -0.00   0.01  -0.01     0.01  -0.09  -0.00    -0.01   0.08  -0.01
  85   1    -0.01  -0.00  -0.01     0.05  -0.08  -0.00    -0.05   0.06  -0.02
  86   1    -0.01  -0.01   0.02    -0.09  -0.06   0.01     0.07   0.04   0.02
  87   1    -0.01  -0.00   0.03    -0.10  -0.01   0.01     0.07   0.01   0.02
  88   1    -0.01   0.00   0.02    -0.08  -0.05   0.01     0.05   0.05   0.02
  89   1    -0.06  -0.03   0.05    -0.01   0.00   0.00    -0.03  -0.04   0.01
  90   1    -0.07  -0.01   0.04    -0.00  -0.00   0.00    -0.04  -0.02   0.00
  91   1    -0.06  -0.04   0.05    -0.00  -0.00   0.00    -0.03  -0.03   0.01
  92   1     0.01  -0.05   0.03    -0.01  -0.01  -0.02     0.02  -0.03   0.02
  93   1    -0.01  -0.06   0.05    -0.01  -0.01  -0.02     0.01  -0.03   0.03
  94   1    -0.00  -0.06   0.04    -0.01  -0.01  -0.01     0.01  -0.03   0.03
  95   1    -0.06   0.02  -0.01    -0.01   0.01  -0.01    -0.04  -0.02   0.00
  96   1    -0.04   0.02  -0.03    -0.01   0.01  -0.02    -0.03  -0.02  -0.00
  97   1    -0.04   0.02  -0.04    -0.01   0.01  -0.02    -0.02  -0.02  -0.02
  98   1    -0.02  -0.03   0.04     0.01  -0.02   0.01    -0.01  -0.04   0.05
  99   1    -0.04  -0.03   0.03    -0.01  -0.02   0.01    -0.03  -0.04   0.05
 100   1    -0.01  -0.03   0.04     0.01  -0.02   0.01     0.01  -0.04   0.06
                      7                      8                      9
                        a                      a                      a 
 Frequencies --    31.4019                33.0712                40.1039
 Red. masses --    13.3965                14.2567                14.9156
 Frc consts  --     0.0000                 0.0000                 0.0000
 IR Inten    --     0.0144                 0.0327                 0.0100
 Raman Activ --     0.0000                 0.0000                 0.0000
 Depolar     --     0.0000                 0.0000                 0.0000
 Atom AN      X      Y      Z        X      Y      Z        X      Y      Z
   1   6     0.08   0.02  -0.06    -0.10  -0.15  -0.10    -0.06  -0.07   0.10
   2  14     0.06   0.04  -0.02    -0.14  -0.11  -0.13    -0.03  -0.09   0.10
   3   8     0.05   0.01  -0.06    -0.08  -0.05  -0.03    -0.01  -0.04   0.12
   4   6    -0.05  -0.01   0.03    -0.13  -0.00  -0.16     0.04  -0.02   0.03
   5   6     0.03   0.11   0.08    -0.05  -0.11  -0.12    -0.14  -0.08   0.02
   6  14     0.08   0.15   0.07    -0.11  -0.14  -0.10    -0.12  -0.10  -0.02
   7   8     0.08   0.09   0.04    -0.10  -0.10  -0.09    -0.05  -0.09   0.02
   8   6     0.05   0.09   0.06    -0.13  -0.05  -0.05    -0.06  -0.04  -0.04
   9   6     0.11   0.18   0.03    -0.02  -0.09  -0.02     0.03   0.08  -0.05
  10  14     0.06   0.20   0.03     0.02  -0.11  -0.01    -0.03   0.06  -0.02
  11   8     0.07   0.14   0.03    -0.04  -0.11  -0.03    -0.09  -0.05  -0.04
  12   6    -0.04   0.17  -0.03     0.06  -0.08   0.07    -0.06   0.09   0.11
  13   6     0.10   0.12   0.04     0.02  -0.00  -0.06     0.16   0.13  -0.05
  14  14     0.06   0.05   0.04     0.07   0.02  -0.06     0.13   0.07  -0.12
  15   8     0.04   0.07   0.03     0.04  -0.02  -0.05     0.04   0.05  -0.08
  16   6    -0.07   0.02   0.02     0.09   0.03  -0.00     0.01   0.05  -0.05
  17   6     0.09  -0.07  -0.07     0.01   0.10   0.13     0.11   0.00   0.00
  18  14     0.11  -0.06  -0.01     0.07   0.09   0.05     0.19  -0.07  -0.13
  19   8     0.09  -0.05   0.03     0.03   0.06  -0.05     0.14  -0.02  -0.13
  20   6     0.04   0.02  -0.02     0.13  -0.02   0.05     0.14  -0.15  -0.06
  21   6    -0.28   0.09   0.23    -0.18   0.12   0.27    -0.05   0.07  -0.08
  22  14    -0.16  -0.11   0.06    -0.10   0.09   0.10     0.01  -0.07  -0.10
  23   8     0.07  -0.05   0.02     0.01   0.09   0.03     0.14  -0.03  -0.15
  24   6    -0.28  -0.28  -0.10    -0.21  -0.07  -0.07     0.00  -0.23  -0.02
  25   6    -0.04  -0.09  -0.04     0.04   0.09  -0.04    -0.02   0.01   0.13
  26  14    -0.01  -0.12  -0.03     0.10   0.11   0.02    -0.13   0.06   0.04
  27   8    -0.03  -0.08   0.02     0.05   0.11   0.06    -0.08  -0.02  -0.05
  28   6     0.01  -0.09  -0.06     0.08   0.05   0.02    -0.11   0.08  -0.00
  29   6    -0.02  -0.02  -0.04     0.07   0.11  -0.03    -0.08   0.04   0.09
  30  14    -0.00  -0.08  -0.05     0.15   0.07   0.03    -0.13   0.09   0.08
  31   8     0.01  -0.08  -0.01     0.11   0.06   0.02    -0.12   0.09   0.03
  32   6     0.03  -0.04  -0.06     0.16   0.07   0.08    -0.12   0.05   0.08
  33   6    -0.06  -0.03   0.02     0.01  -0.03   0.07     0.09   0.01  -0.10
  34  14    -0.05  -0.06  -0.03     0.08  -0.03   0.07    -0.01   0.05  -0.00
  35   8    -0.03  -0.05  -0.02     0.09  -0.01   0.02    -0.05   0.06   0.04
  36   6    -0.01  -0.08  -0.02     0.09  -0.03   0.10    -0.08   0.11  -0.05
  37   6    -0.08  -0.00  -0.08    -0.06  -0.03  -0.02     0.17  -0.02   0.16
  38  14    -0.03  -0.02  -0.06    -0.06  -0.01  -0.01     0.10  -0.04   0.13
  39   8    -0.03  -0.02  -0.05     0.03  -0.02   0.03     0.04  -0.03   0.09
  40   6    -0.03  -0.06   0.04    -0.06   0.09  -0.00     0.09  -0.01  -0.04
  41   1     0.02   0.01  -0.03    -0.03  -0.05  -0.03    -0.01  -0.03   0.04
  42   1     0.03   0.01  -0.02    -0.03  -0.05  -0.04    -0.02  -0.02   0.03
  43   1     0.03   0.00  -0.02    -0.02  -0.05  -0.02    -0.02  -0.02   0.03
  44   1    -0.02  -0.01  -0.00    -0.04   0.00  -0.05     0.01   0.00   0.02
  45   1    -0.02  -0.00   0.01    -0.04   0.01  -0.04     0.02  -0.01   0.00
  46   1    -0.02   0.00   0.02    -0.04  -0.01  -0.06     0.01  -0.01   0.00
  47   1     0.01   0.03   0.03    -0.02  -0.03  -0.04    -0.04  -0.03   0.01
  48   1     0.01   0.04   0.02    -0.01  -0.04  -0.03    -0.05  -0.02  -0.00
  49   1     0.01   0.03   0.02    -0.01  -0.04  -0.04    -0.04  -0.03   0.01
  50   1     0.01   0.02   0.02    -0.05  -0.02  -0.02    -0.02  -0.01  -0.01
  51   1     0.01   0.02   0.02    -0.04  -0.01  -0.01    -0.01  -0.01  -0.01
  52   1     0.01   0.03   0.02    -0.04  -0.01  -0.01    -0.02  -0.01  -0.02
  53   1     0.03   0.06   0.01    -0.00  -0.03  -0.01     0.01   0.03  -0.01
  54   1     0.04   0.05   0.01    -0.01  -0.02  -0.01     0.02   0.02  -0.02
  55   1     0.03   0.05   0.01    -0.01  -0.03  -0.01     0.01   0.03  -0.01
  56   1    -0.01   0.06  -0.01     0.01  -0.04   0.03    -0.02   0.02   0.04
  57   1    -0.02   0.05  -0.01     0.02  -0.02   0.02    -0.01   0.05   0.03
  58   1    -0.02   0.04  -0.01     0.02  -0.02   0.02    -0.02   0.02   0.04
  59   1     0.04   0.03   0.01     0.00  -0.00  -0.02     0.06   0.04  -0.02
  60   1     0.04   0.04   0.01     0.00   0.00  -0.02     0.05   0.04  -0.02
  61   1     0.02   0.05   0.02     0.01  -0.00  -0.02     0.04   0.05  -0.00
  62   1    -0.03   0.00   0.01     0.03   0.02  -0.00    -0.00   0.02  -0.01
  63   1    -0.03  -0.00   0.01     0.03   0.01   0.00    -0.00   0.01  -0.01
  64   1    -0.03   0.02   0.00     0.03   0.00   0.00    -0.00   0.02  -0.02
  65   1     0.02  -0.02  -0.03     0.01   0.02   0.04     0.03  -0.00   0.01
  66   1     0.03  -0.03  -0.02    -0.01   0.04   0.03     0.03   0.01  -0.00
  67   1     0.02  -0.02  -0.03     0.00   0.03   0.05     0.03  -0.00   0.01
  68   1     0.01   0.01   0.00     0.04  -0.01   0.00     0.04  -0.06  -0.03
  69   1     0.01   0.01  -0.01     0.04  -0.01   0.02     0.04  -0.05  -0.00
  70   1     0.01   0.01  -0.01     0.04  -0.01   0.03     0.04  -0.04  -0.02
  71   1    -0.11   0.02   0.07    -0.07   0.03   0.08    -0.04   0.02  -0.03
  72   1    -0.06   0.05   0.09    -0.03   0.05   0.10    -0.01   0.03  -0.02
  73   1    -0.10   0.03   0.07    -0.08   0.03   0.08    -0.01   0.03  -0.02
  74   1    -0.11  -0.09  -0.02    -0.08  -0.02  -0.01    -0.02  -0.07   0.02
  75   1    -0.10  -0.09  -0.03    -0.08  -0.02  -0.02     0.01  -0.08  -0.01
  76   1    -0.06  -0.10  -0.06    -0.04  -0.03  -0.05     0.01  -0.08  -0.01
  77   1    -0.01  -0.03  -0.01     0.01   0.02  -0.02    -0.01   0.02   0.05
  78   1    -0.02  -0.02  -0.01     0.01   0.03  -0.01    -0.00  -0.00   0.04
  79   1    -0.02  -0.03  -0.01     0.01   0.03  -0.01    -0.00  -0.01   0.04
  80   1     0.01  -0.02  -0.02     0.02   0.01   0.00    -0.02   0.03  -0.01
  81   1    -0.00  -0.03  -0.02     0.03   0.01   0.01    -0.04   0.03  -0.00
  82   1     0.00  -0.02  -0.02     0.03   0.01   0.01    -0.03   0.02   0.00
  83   1    -0.00  -0.01  -0.01     0.02   0.03  -0.01    -0.02   0.01   0.03
  84   1    -0.00  -0.00  -0.01     0.03   0.04  -0.01    -0.03   0.01   0.03
  85   1    -0.01  -0.01  -0.01     0.01   0.03  -0.01    -0.02   0.01   0.03
  86   1     0.01  -0.01  -0.02     0.05   0.02   0.03    -0.03   0.01   0.03
  87   1     0.01  -0.02  -0.02     0.05   0.01   0.03    -0.04   0.02   0.02
  88   1     0.01  -0.01  -0.02     0.04   0.03   0.03    -0.04   0.02   0.03
  89   1    -0.02  -0.01   0.01     0.00  -0.01   0.02     0.03   0.00  -0.04
  90   1    -0.02  -0.00   0.00    -0.00  -0.00   0.02     0.04  -0.01  -0.03
  91   1    -0.02  -0.01   0.01     0.00  -0.01   0.02     0.02   0.02  -0.04
  92   1     0.00  -0.02  -0.01     0.03  -0.01   0.03    -0.04   0.03  -0.00
  93   1    -0.00  -0.02  -0.00     0.02  -0.01   0.04    -0.02   0.04  -0.02
  94   1    -0.00  -0.03  -0.00     0.03  -0.01   0.03    -0.03   0.04  -0.02
  95   1    -0.03   0.00  -0.02    -0.02  -0.01  -0.01     0.07  -0.01   0.04
  96   1    -0.03  -0.00  -0.03    -0.02  -0.01  -0.00     0.06  -0.01   0.05
  97   1    -0.02   0.00  -0.04    -0.02  -0.01  -0.01     0.05  -0.01   0.07
  98   1    -0.01  -0.02   0.01    -0.03   0.03  -0.01     0.03  -0.00  -0.01
  99   1    -0.02  -0.02   0.01    -0.01   0.03   0.00     0.04  -0.00  -0.02
 100   1     0.00  -0.02   0.02    -0.02   0.03   0.00     0.01  -0.00  -0.02
                     10                     11                     12
                        a                      a                      a 
 Frequencies --    43.9481                47.6010                47.9391
 Red. masses --    13.8209                12.7036                12.2771
 Frc consts  --     0.0000                 0.0000                 0.0000
 IR Inten    --     0.0120                 0.0144                 0.0484
 Raman Activ --     0.0000                 0.0000                 0.0000
 Depolar     --     0.0000                 0.0000                 0.0000
 Atom AN      X      Y      Z        X      Y      Z        X      Y      Z
   1   6     0.02  -0.22  -0.15    -0.07   0.15   0.22    -0.01  -0.01   0.03
   2  14     0.00  -0.14  -0.13    -0.00   0.07   0.15    -0.01   0.03   0.05
   3   8     0.04  -0.08  -0.03    -0.05   0.05   0.10     0.05  -0.01   0.01
   4   6    -0.11  -0.02  -0.16     0.20   0.01   0.13    -0.07  -0.01   0.07
   5   6    -0.02  -0.06  -0.04    -0.07  -0.03  -0.00    -0.03   0.14   0.05
   6  14     0.02  -0.05  -0.04    -0.09  -0.07  -0.04    -0.04   0.16   0.01
   7   8     0.04  -0.08  -0.05    -0.07  -0.03   0.00    -0.00   0.11   0.04
   8   6    -0.03   0.00  -0.02    -0.01  -0.06  -0.05     0.02   0.07  -0.00
   9   6     0.10   0.10  -0.10    -0.07  -0.05  -0.03    -0.35  -0.24   0.04
  10  14     0.08   0.10  -0.04    -0.07  -0.05  -0.03    -0.08  -0.01  -0.03
  11   8     0.06   0.00  -0.02    -0.10  -0.07  -0.04    -0.08   0.12  -0.04
  12   6     0.00   0.12   0.03    -0.01  -0.04   0.07     0.27  -0.21   0.02
  13   6    -0.01  -0.03  -0.01     0.02   0.02  -0.05     0.05   0.02   0.03
  14  14     0.06   0.07  -0.02     0.02   0.04  -0.09     0.03   0.14  -0.12
  15   8     0.06   0.08  -0.02    -0.02   0.02  -0.06    -0.04   0.22  -0.08
  16   6     0.11   0.03  -0.06     0.04   0.03  -0.05     0.05   0.04  -0.22
  17   6     0.06   0.03  -0.22     0.01  -0.02  -0.19    -0.06  -0.04  -0.04
  18  14     0.00   0.17  -0.06     0.02   0.08  -0.10     0.06   0.04  -0.04
  19   8     0.01   0.09   0.02     0.01   0.04  -0.08     0.03   0.08  -0.09
  20   6    -0.10   0.27  -0.07     0.01   0.19  -0.08     0.11   0.09  -0.03
  21   6     0.05   0.08   0.00    -0.03   0.00   0.19    -0.02   0.05  -0.02
  22  14     0.03   0.12   0.12     0.03   0.04   0.08     0.01  -0.03   0.02
  23   8     0.01   0.09   0.07     0.02   0.03   0.03     0.07  -0.01   0.04
  24   6     0.07   0.11   0.13    -0.06  -0.00  -0.04     0.01  -0.05   0.03
  25   6    -0.17  -0.06  -0.00    -0.01  -0.04  -0.06     0.09   0.02  -0.01
  26  14    -0.11  -0.07   0.10     0.16  -0.02   0.00    -0.06  -0.09   0.03
  27   8    -0.04   0.07   0.09     0.13   0.07   0.05    -0.04  -0.08   0.01
  28   6    -0.01  -0.11   0.11     0.18  -0.10  -0.01    -0.13   0.01   0.12
  29   6    -0.03  -0.17   0.20     0.14  -0.24  -0.10    -0.06   0.03   0.13
  30  14    -0.09  -0.14   0.12     0.03  -0.07  -0.09     0.00  -0.08   0.02
  31   8    -0.09  -0.09   0.06     0.13   0.01   0.01    -0.07  -0.16  -0.01
  32   6    -0.11  -0.11  -0.03    -0.16  -0.10  -0.17     0.10  -0.04  -0.06
  33   6     0.08  -0.01   0.00    -0.16  -0.01   0.06     0.06  -0.02  -0.01
  34  14     0.03  -0.03   0.06    -0.10   0.03   0.06     0.06  -0.05  -0.01
  35   8    -0.01  -0.03   0.08    -0.04   0.06  -0.01     0.04  -0.05   0.00
  36   6    -0.03   0.02   0.00    -0.01  -0.03   0.07     0.03  -0.02  -0.01
  37   6    -0.01   0.02  -0.01     0.10   0.04   0.12    -0.05  -0.08  -0.03
  38  14     0.02  -0.04   0.03     0.00   0.04   0.08     0.01  -0.04   0.01
  39   8     0.03  -0.04   0.07    -0.07   0.04   0.04     0.04  -0.03  -0.02
  40   6     0.00  -0.00   0.04     0.04  -0.02  -0.04    -0.01  -0.03   0.08
  41   1     0.00  -0.07  -0.05    -0.01   0.05   0.08    -0.00  -0.01   0.01
  42   1    -0.00  -0.07  -0.05    -0.02   0.05   0.07    -0.01  -0.00   0.01
  43   1     0.02  -0.08  -0.03    -0.04   0.05   0.06     0.00  -0.01   0.01
  44   1    -0.04  -0.01  -0.06     0.07   0.02   0.06    -0.02  -0.01   0.01
  45   1    -0.04   0.01  -0.03     0.07  -0.02   0.02    -0.02  -0.00   0.03
  46   1    -0.04  -0.01  -0.06     0.07   0.00   0.04    -0.02   0.00   0.03
  47   1    -0.01  -0.02  -0.01    -0.02  -0.01   0.00    -0.00   0.04   0.02
  48   1    -0.01  -0.01  -0.01    -0.02  -0.01  -0.00    -0.01   0.04   0.01
  49   1    -0.00  -0.02  -0.01    -0.03  -0.01   0.00    -0.02   0.05   0.02
  50   1    -0.02  -0.00  -0.01     0.00  -0.01  -0.01     0.01   0.02   0.00
  51   1    -0.01   0.01  -0.00    -0.00  -0.02  -0.02     0.01   0.02  -0.01
  52   1    -0.01   0.00  -0.00    -0.00  -0.02  -0.02     0.01   0.02  -0.00
  53   1     0.03   0.03  -0.03    -0.02  -0.02  -0.01    -0.10  -0.11   0.02
  54   1     0.04   0.02  -0.03    -0.03  -0.01  -0.01    -0.15  -0.04   0.01
  55   1     0.02   0.04  -0.03    -0.02  -0.02  -0.01    -0.10  -0.10   0.02
  56   1    -0.00   0.04   0.01    -0.01  -0.02   0.03     0.08  -0.10   0.01
  57   1     0.00   0.05   0.01     0.00  -0.00   0.02     0.08  -0.09   0.01
  58   1    -0.01   0.03   0.01     0.00  -0.01   0.02     0.13  -0.03   0.00
  59   1    -0.01  -0.01   0.00     0.00   0.01  -0.01     0.00   0.01   0.02
  60   1    -0.01  -0.01  -0.00     0.01   0.01  -0.01     0.03  -0.00   0.01
  61   1     0.00  -0.02  -0.01     0.00   0.01  -0.01     0.02   0.00   0.02
  62   1     0.04   0.00  -0.02     0.01   0.01  -0.02     0.02  -0.01  -0.07
  63   1     0.03   0.02  -0.03     0.01   0.01  -0.02     0.01   0.03  -0.08
  64   1     0.03   0.00  -0.02     0.01   0.01  -0.01     0.01   0.01  -0.07
  65   1     0.01   0.02  -0.08    -0.00   0.00  -0.07    -0.03  -0.00  -0.02
  66   1     0.03  -0.02  -0.06     0.01  -0.03  -0.05    -0.02  -0.02  -0.01
  67   1     0.01   0.01  -0.08     0.00  -0.01  -0.06    -0.02  -0.02  -0.00
  68   1    -0.03   0.10   0.00     0.01   0.07  -0.01     0.04   0.03  -0.01
  69   1    -0.04   0.09  -0.04     0.00   0.06  -0.04     0.04   0.03  -0.02
  70   1    -0.03   0.08  -0.03     0.00   0.06  -0.02     0.03   0.03   0.00
  71   1     0.01   0.02  -0.00    -0.01   0.00   0.06    -0.02   0.01  -0.01
  72   1     0.01   0.02  -0.01     0.00   0.01   0.07    -0.01   0.02  -0.01
  73   1     0.02   0.03  -0.00    -0.03  -0.01   0.06     0.00   0.02  -0.01
  74   1     0.03   0.03   0.03    -0.03  -0.00  -0.01    -0.00  -0.02   0.01
  75   1     0.03   0.03   0.04    -0.03  -0.00  -0.01     0.01  -0.02   0.01
  76   1     0.01   0.03   0.05    -0.01  -0.01  -0.03     0.01  -0.02   0.01
  77   1    -0.05  -0.03  -0.01    -0.00  -0.03  -0.03     0.03   0.01   0.00
  78   1    -0.06  -0.00  -0.00    -0.02   0.00  -0.01     0.04  -0.01  -0.01
  79   1    -0.05  -0.02  -0.00    -0.01  -0.01  -0.02     0.03   0.02   0.00
  80   1    -0.01  -0.04   0.04     0.05  -0.04  -0.00    -0.04   0.01   0.04
  81   1     0.01  -0.04   0.03     0.06  -0.04  -0.01    -0.03   0.02   0.04
  82   1     0.00  -0.03   0.03     0.07  -0.02  -0.01    -0.06  -0.01   0.04
  83   1     0.00  -0.05   0.07     0.03  -0.10  -0.03    -0.00   0.03   0.04
  84   1    -0.03  -0.07   0.06     0.04  -0.08  -0.03    -0.03   0.00   0.04
  85   1     0.01  -0.05   0.07     0.08  -0.06  -0.03    -0.03   0.01   0.05
  86   1    -0.04  -0.02  -0.02    -0.06  -0.03  -0.06     0.03   0.01  -0.02
  87   1    -0.03  -0.03  -0.02    -0.06  -0.00  -0.05     0.04  -0.02  -0.02
  88   1    -0.03  -0.05  -0.02    -0.04  -0.06  -0.06     0.04  -0.01  -0.02
  89   1     0.03   0.00  -0.00    -0.05  -0.01   0.02     0.02  -0.00  -0.00
  90   1     0.03  -0.01   0.00    -0.06   0.01   0.01     0.02  -0.01  -0.00
  91   1     0.03   0.00  -0.00    -0.05  -0.01   0.02     0.02  -0.01  -0.00
  92   1    -0.02   0.00   0.00     0.01  -0.01   0.02     0.01  -0.01  -0.00
  93   1    -0.01   0.01  -0.00    -0.00  -0.02   0.03     0.01  -0.00  -0.00
  94   1    -0.01   0.01  -0.00    -0.01  -0.01   0.02     0.01  -0.01  -0.00
  95   1    -0.01   0.01   0.00     0.04   0.01   0.03    -0.02  -0.03  -0.01
  96   1    -0.00   0.01  -0.01     0.04   0.01   0.03    -0.02  -0.02  -0.00
  97   1    -0.00   0.01  -0.01     0.02   0.02   0.05    -0.01  -0.02  -0.02
  98   1    -0.00   0.00   0.01     0.02  -0.01  -0.01    -0.01  -0.01   0.02
  99   1     0.00   0.00   0.01     0.02  -0.01  -0.02    -0.01  -0.01   0.03
 100   1     0.00  -0.00   0.01    -0.00  -0.01  -0.02     0.01  -0.01   0.03
                     13                     14                     15
                        a                      a                      a 
 Frequencies --    51.6855                58.6170                61.1809
 Red. masses --    13.6870                12.8861                12.1058
 Frc consts  --     0.0000                 0.0000                 0.0000
 IR Inten    --     0.1115                 0.0572                 0.0660
 Raman Activ --     0.0000                 0.0000                 0.0000
 Depolar     --     0.0000                 0.0000                 0.0000
 Atom AN      X      Y      Z        X      Y      Z        X      Y      Z
   1   6    -0.06   0.11   0.08     0.13  -0.26  -0.17    -0.05   0.16   0.06
   2  14    -0.02  -0.01  -0.03     0.06  -0.08   0.00    -0.02  -0.03  -0.06
   3   8    -0.05  -0.02  -0.07     0.09  -0.04   0.06    -0.02  -0.07  -0.14
   4   6     0.13  -0.07   0.04    -0.23   0.03  -0.08     0.11  -0.14   0.08
   5   6    -0.01  -0.04  -0.09    -0.04  -0.01   0.06     0.08   0.07  -0.01
   6  14    -0.06  -0.04  -0.08     0.09   0.06   0.07    -0.01   0.02  -0.02
   7   8    -0.06  -0.04  -0.10     0.14   0.03   0.15    -0.06  -0.01  -0.12
   8   6    -0.10   0.00  -0.02     0.11   0.10  -0.04    -0.08  -0.07   0.10
   9   6     0.08   0.05  -0.02    -0.11  -0.07  -0.01    -0.07  -0.05  -0.01
  10  14     0.05   0.02  -0.00    -0.03  -0.01  -0.02     0.04   0.04  -0.00
  11   8     0.02  -0.02  -0.01     0.02   0.05   0.00     0.03   0.05  -0.00
  12   6    -0.00   0.05   0.03     0.06  -0.07  -0.05     0.13  -0.04   0.02
  13   6    -0.01  -0.01  -0.02    -0.04  -0.01   0.02     0.01   0.01   0.05
  14  14     0.02  -0.00   0.00    -0.05   0.03  -0.01     0.00   0.06   0.01
  15   8     0.05   0.00  -0.00    -0.05   0.05  -0.00     0.01   0.12   0.01
  16   6     0.00  -0.00   0.00    -0.02   0.00  -0.05    -0.01   0.01  -0.09
  17   6    -0.05  -0.06   0.08    -0.08  -0.03  -0.01     0.05  -0.01  -0.13
  18  14     0.03   0.01   0.17    -0.06  -0.01  -0.03    -0.02   0.01  -0.06
  19   8     0.00   0.00   0.05    -0.04   0.02  -0.02     0.00   0.02   0.05
  20   6     0.12   0.13   0.10    -0.02  -0.02  -0.02    -0.18  -0.00  -0.06
  21   6     0.02  -0.00   0.12     0.04  -0.11   0.14     0.02  -0.04   0.05
  22  14     0.03  -0.02   0.20     0.05  -0.02   0.06     0.02  -0.01   0.03
  23   8     0.01  -0.02   0.23    -0.01  -0.03  -0.02     0.02  -0.00  -0.07
  24   6     0.02   0.04   0.11     0.00  -0.02   0.00     0.02  -0.08   0.06
  25   6     0.14  -0.00   0.06     0.02  -0.00   0.09    -0.15  -0.06   0.15
  26  14     0.07  -0.10   0.13     0.14   0.09   0.07     0.01   0.11   0.07
  27   8     0.03  -0.08   0.12     0.11   0.07   0.06    -0.00   0.08   0.06
  28   6    -0.02  -0.01   0.13     0.15   0.01  -0.03     0.10   0.00  -0.14
  29   6    -0.14   0.16  -0.10     0.01   0.04  -0.27     0.05  -0.00  -0.12
  30  14    -0.07  -0.02  -0.06    -0.06   0.11  -0.05    -0.00   0.05   0.15
  31   8    -0.00  -0.15   0.05     0.09   0.15   0.07     0.06   0.22   0.11
  32   6     0.13   0.02  -0.12    -0.08   0.06   0.01    -0.07   0.04   0.37
  33   6     0.15   0.07  -0.20    -0.03  -0.03  -0.15     0.16   0.02   0.03
  34  14    -0.10   0.04  -0.16    -0.16   0.02  -0.03     0.04  -0.10  -0.01
  35   8    -0.13  -0.04  -0.02    -0.17   0.05   0.01    -0.01  -0.15   0.08
  36   6    -0.20   0.15  -0.21    -0.18   0.09  -0.07    -0.06  -0.05  -0.12
  37   6     0.06   0.02  -0.03     0.09   0.05   0.09    -0.07  -0.01  -0.13
  38  14    -0.03  -0.04  -0.11     0.07  -0.06   0.10    -0.04  -0.06  -0.15
  39   8    -0.07  -0.03  -0.07    -0.06  -0.05   0.08     0.00  -0.06  -0.04
  40   6     0.02  -0.07  -0.16     0.08  -0.13   0.04    -0.04  -0.03  -0.08
  41   1    -0.01   0.04   0.04     0.02  -0.09  -0.08    -0.01   0.05   0.03
  42   1    -0.01   0.03   0.03     0.03  -0.08  -0.06    -0.00   0.05   0.03
  43   1    -0.04   0.04   0.01     0.07  -0.09  -0.04    -0.04   0.06   0.01
  44   1     0.05  -0.01   0.02    -0.08  -0.01  -0.05     0.04  -0.04   0.04
  45   1     0.05  -0.04  -0.00    -0.08   0.04   0.00     0.04  -0.07   0.01
  46   1     0.04  -0.01   0.02    -0.08   0.00  -0.03     0.04  -0.03   0.05
  47   1    -0.01  -0.01  -0.03    -0.01  -0.01   0.02     0.03   0.03  -0.00
  48   1     0.00  -0.01  -0.02    -0.02   0.00   0.01     0.03   0.01   0.01
  49   1     0.00  -0.01  -0.03    -0.01  -0.01   0.02     0.02   0.03  -0.01
  50   1    -0.04  -0.00  -0.01     0.04   0.03  -0.01    -0.03  -0.03   0.03
  51   1    -0.03   0.00  -0.00     0.04   0.04  -0.01    -0.04  -0.03   0.03
  52   1    -0.03   0.00   0.00     0.02   0.03  -0.03    -0.01  -0.02   0.05
  53   1     0.02   0.02  -0.01    -0.03  -0.03  -0.00    -0.02  -0.03  -0.00
  54   1     0.03   0.01  -0.01    -0.05  -0.01  -0.00    -0.04  -0.01  -0.01
  55   1     0.02   0.02  -0.01    -0.03  -0.03  -0.00    -0.02  -0.02  -0.00
  56   1    -0.00   0.02   0.01     0.02  -0.03  -0.02     0.04  -0.03   0.01
  57   1     0.00   0.02   0.01     0.01  -0.03  -0.02     0.04  -0.02   0.01
  58   1    -0.01   0.01   0.01     0.03  -0.01  -0.02     0.05  -0.00   0.00
  59   1    -0.00  -0.00  -0.01    -0.01  -0.00   0.01    -0.00   0.00   0.02
  60   1    -0.01  -0.00  -0.01    -0.01  -0.01   0.01     0.01  -0.01   0.01
  61   1    -0.00  -0.00  -0.01    -0.01  -0.01   0.01     0.00   0.00   0.02
  62   1     0.00  -0.00   0.00    -0.00  -0.01  -0.02    -0.00  -0.01  -0.03
  63   1     0.00  -0.00   0.00    -0.01   0.01  -0.02    -0.00   0.01  -0.03
  64   1     0.00   0.00  -0.00    -0.01   0.00  -0.02    -0.00   0.01  -0.03
  65   1    -0.02  -0.01   0.01    -0.03  -0.01  -0.01     0.02  -0.00  -0.04
  66   1    -0.02  -0.03   0.02    -0.03  -0.01  -0.00     0.03  -0.02  -0.03
  67   1    -0.02  -0.03   0.03    -0.02  -0.01   0.00     0.01   0.00  -0.05
  68   1     0.05   0.06   0.04    -0.01  -0.01  -0.01    -0.07  -0.01  -0.01
  69   1     0.03   0.05   0.00    -0.00  -0.01  -0.00    -0.06  -0.00  -0.00
  70   1     0.04   0.04   0.05    -0.01  -0.01  -0.00    -0.06   0.00  -0.05
  71   1     0.00  -0.00   0.03     0.02  -0.03   0.05     0.01  -0.01   0.02
  72   1     0.01  -0.00   0.04     0.02  -0.03   0.05     0.01  -0.01   0.02
  73   1     0.00   0.00   0.04    -0.01  -0.04   0.04     0.00  -0.02   0.01
  74   1     0.01   0.01   0.03    -0.00  -0.01   0.00    -0.00  -0.03   0.03
  75   1     0.00   0.02   0.04    -0.01  -0.01   0.00     0.01  -0.03   0.01
  76   1     0.00   0.02   0.03     0.00  -0.01  -0.01     0.01  -0.03   0.02
  77   1     0.04   0.01   0.02     0.00  -0.00   0.03    -0.05  -0.02   0.05
  78   1     0.05  -0.01   0.01    -0.00   0.00   0.04    -0.06  -0.00   0.06
  79   1     0.04   0.01   0.02     0.01  -0.02   0.02    -0.04  -0.05   0.04
  80   1     0.00   0.01   0.04     0.04  -0.00  -0.01     0.03   0.00  -0.05
  81   1    -0.01   0.01   0.04     0.04  -0.01  -0.02     0.02  -0.03  -0.06
  82   1    -0.02  -0.01   0.04     0.06   0.01  -0.02     0.05   0.02  -0.06
  83   1    -0.04   0.06  -0.03    -0.02  -0.01  -0.09    -0.01  -0.02  -0.05
  84   1    -0.03   0.06  -0.03     0.03   0.03  -0.09     0.04   0.02  -0.04
  85   1    -0.07   0.04  -0.03     0.01   0.01  -0.09     0.02  -0.00  -0.05
  86   1     0.04   0.03  -0.04    -0.02   0.01   0.01    -0.01  -0.03   0.13
  87   1     0.05  -0.01  -0.04    -0.03   0.02   0.01    -0.03   0.02   0.12
  88   1     0.05   0.01  -0.04    -0.03   0.02   0.00    -0.04   0.04   0.12
  89   1     0.05   0.03  -0.07    -0.00  -0.02  -0.05     0.05   0.03  -0.00
  90   1     0.07  -0.00  -0.04     0.00  -0.03  -0.04     0.06  -0.00   0.02
  91   1     0.05   0.04  -0.07    -0.01   0.01  -0.06     0.05   0.01   0.01
  92   1    -0.09   0.04  -0.05    -0.07   0.03  -0.01    -0.03  -0.02  -0.03
  93   1    -0.05   0.05  -0.08    -0.05   0.03  -0.03    -0.01  -0.00  -0.05
  94   1    -0.06   0.06  -0.08    -0.06   0.04  -0.03    -0.02  -0.02  -0.04
  95   1     0.02   0.01  -0.01     0.03   0.02   0.03    -0.03  -0.00  -0.03
  96   1     0.03   0.01  -0.01     0.04   0.02   0.01    -0.02  -0.00  -0.04
  97   1     0.01   0.01   0.01     0.02   0.02   0.04    -0.02  -0.00  -0.05
  98   1     0.02  -0.02  -0.04     0.04  -0.04   0.01    -0.01  -0.01  -0.02
  99   1     0.01  -0.02  -0.05     0.02  -0.04   0.01    -0.01  -0.01  -0.02
 100   1    -0.01  -0.02  -0.05     0.02  -0.05   0.01    -0.01  -0.01  -0.02
                     16                     17                     18
                        a                      a                      a 
 Frequencies --    66.1121                72.5773                77.5949
 Red. masses --    13.5017                12.4865                11.3319
 Frc consts  --     0.0000                 0.0000                 0.0000
 IR Inten    --     0.1453                 0.0484                 0.0319
 Raman Activ --     0.0000                 0.0000                 0.0000
 Depolar     --     0.0000                 0.0000                 0.0000
 Atom AN      X      Y      Z        X      Y      Z        X      Y      Z
   1   6    -0.05  -0.01   0.04     0.22   0.20  -0.14     0.01  -0.03  -0.03
   2  14    -0.04   0.00   0.03     0.02   0.08   0.08    -0.03   0.07   0.05
   3   8     0.05  -0.04  -0.03    -0.14   0.02  -0.06    -0.03   0.07   0.07
   4   6    -0.08  -0.05   0.08    -0.13  -0.05   0.17    -0.09   0.11  -0.03
   5   6    -0.04   0.16   0.06    -0.09  -0.14   0.05    -0.06  -0.03   0.01
   6  14    -0.07   0.15  -0.02     0.07  -0.08   0.08    -0.01  -0.01  -0.01
   7   8    -0.04   0.12  -0.01     0.13   0.02   0.27     0.01   0.05   0.09
   8   6     0.01   0.04  -0.02     0.22   0.07  -0.17     0.10   0.03  -0.12
   9   6     0.03  -0.02   0.27    -0.00   0.01  -0.10     0.03   0.00   0.00
  10  14    -0.09  -0.11  -0.04    -0.10  -0.07   0.02    -0.02  -0.05  -0.00
  11   8    -0.09   0.12  -0.06    -0.08  -0.15   0.02    -0.08  -0.06  -0.03
  12   6    -0.15  -0.07  -0.32    -0.13   0.03   0.15    -0.05   0.00   0.06
  13   6     0.06   0.04  -0.15    -0.02  -0.01  -0.03     0.01  -0.00  -0.09
  14  14     0.04  -0.17  -0.07    -0.00   0.03  -0.04     0.04  -0.03  -0.06
  15   8    -0.01  -0.33  -0.05    -0.05  -0.03  -0.02     0.03  -0.07  -0.05
  16   6    -0.02  -0.03   0.19     0.10   0.05   0.03     0.04   0.00   0.02
  17   6     0.11   0.05  -0.06    -0.03   0.05  -0.01    -0.04  -0.07  -0.01
  18  14     0.09   0.03  -0.09    -0.02   0.04  -0.10     0.06   0.03   0.09
  19   8     0.04  -0.11  -0.15    -0.02   0.08  -0.09     0.02  -0.00  -0.03
  20   6     0.17   0.07  -0.05    -0.01  -0.07  -0.05     0.17   0.21   0.05
  21   6     0.03   0.00   0.07     0.01  -0.02   0.07    -0.03   0.17  -0.19
  22  14     0.02   0.09   0.06     0.03   0.02  -0.00    -0.06  -0.01   0.08
  23   8    -0.03   0.06  -0.01     0.02   0.02  -0.10     0.01  -0.00   0.21
  24   6     0.02   0.08   0.05    -0.00  -0.04  -0.01     0.05   0.03   0.15
  25   6    -0.06   0.07  -0.01    -0.00   0.05  -0.05     0.01  -0.08   0.11
  26  14    -0.00   0.09   0.07     0.00   0.01   0.04    -0.05  -0.03  -0.05
  27   8     0.02   0.14   0.07     0.05   0.09   0.02    -0.17  -0.19   0.02
  28   6     0.05  -0.01   0.12     0.02  -0.04   0.15    -0.11   0.14  -0.35
  29   6    -0.02  -0.02   0.04    -0.03   0.01   0.06     0.12  -0.08  -0.20
  30  14    -0.04  -0.01   0.05     0.02  -0.10   0.06     0.08  -0.04   0.02
  31   8    -0.03   0.03   0.03    -0.04  -0.07  -0.01     0.14   0.07   0.06
  32   6    -0.05  -0.01   0.07     0.08  -0.04   0.11     0.01  -0.03   0.10
  33   6     0.08  -0.03  -0.05     0.13   0.11   0.09     0.02   0.06   0.11
  34  14     0.04  -0.06  -0.03     0.02  -0.01  -0.02    -0.00  -0.03   0.01
  35   8    -0.00  -0.05   0.02     0.04  -0.14   0.02    -0.01  -0.09   0.03
  36   6    -0.01  -0.03  -0.06    -0.04   0.01  -0.07    -0.03  -0.10  -0.10
  37   6    -0.02  -0.06  -0.04    -0.01  -0.02  -0.03    -0.03  -0.09   0.02
  38  14     0.03  -0.06  -0.03    -0.10   0.02  -0.12    -0.03   0.01   0.02
  39   8     0.04  -0.05  -0.02    -0.06   0.01  -0.09    -0.00   0.03  -0.05
  40   6     0.01  -0.05   0.03    -0.05   0.05  -0.18    -0.02   0.00   0.03
  41   1    -0.01  -0.01   0.02     0.04   0.07  -0.08    -0.00  -0.01  -0.02
  42   1    -0.02  -0.00   0.01     0.10   0.06  -0.02    -0.00  -0.01  -0.02
  43   1    -0.01  -0.00   0.01     0.08   0.07  -0.05     0.02  -0.02  -0.00
  44   1    -0.03  -0.03   0.02    -0.05  -0.04   0.03    -0.03   0.03  -0.02
  45   1    -0.03  -0.02   0.03    -0.05  -0.02   0.06    -0.03   0.05   0.00
  46   1    -0.03  -0.01   0.04    -0.04  -0.00   0.07    -0.03   0.03  -0.02
  47   1    -0.00   0.04   0.03    -0.03  -0.04   0.02    -0.02  -0.01   0.01
  48   1    -0.01   0.05   0.02    -0.05  -0.03  -0.00    -0.02  -0.00  -0.00
  49   1    -0.02   0.06   0.02    -0.03  -0.06   0.03    -0.02  -0.01   0.01
  50   1     0.01   0.01   0.00     0.09   0.03  -0.04     0.05   0.02  -0.03
  51   1     0.00   0.01  -0.01     0.09   0.04  -0.05     0.04   0.02  -0.04
  52   1     0.00   0.01  -0.01     0.04   0.01  -0.09     0.02   0.00  -0.06
  53   1    -0.01   0.04   0.09     0.00   0.00  -0.04     0.01   0.01   0.00
  54   1     0.02  -0.00   0.10     0.01  -0.01  -0.04     0.02  -0.00  -0.00
  55   1     0.03  -0.04   0.09    -0.01   0.02  -0.03     0.01   0.00   0.00
  56   1    -0.03   0.02  -0.12    -0.05   0.00   0.05    -0.02  -0.00   0.02
  57   1    -0.07  -0.05  -0.10    -0.03   0.04   0.05    -0.01   0.01   0.02
  58   1    -0.06  -0.03  -0.11    -0.05   0.00   0.06    -0.02  -0.00   0.02
  59   1     0.03   0.01  -0.07    -0.01  -0.00  -0.01     0.00  -0.00  -0.03
  60   1     0.01   0.03  -0.04    -0.01  -0.00  -0.01    -0.01   0.01  -0.02
  61   1     0.01   0.02  -0.04    -0.00  -0.01  -0.01     0.00  -0.00  -0.03
  62   1    -0.01   0.03   0.06     0.04   0.03   0.01     0.01   0.01   0.01
  63   1    -0.00  -0.03   0.08     0.04   0.02   0.01     0.01  -0.00   0.01
  64   1    -0.01  -0.01   0.07     0.04  -0.00   0.02     0.01  -0.00   0.01
  65   1     0.04   0.01  -0.02    -0.01   0.01   0.00    -0.02  -0.01  -0.02
  66   1     0.04   0.02  -0.02    -0.02   0.02  -0.01    -0.02  -0.04  -0.00
  67   1     0.03   0.02  -0.02    -0.01   0.01   0.00    -0.01  -0.03   0.00
  68   1     0.05   0.02  -0.02    -0.00  -0.03  -0.03     0.06   0.08   0.03
  69   1     0.06   0.02  -0.03    -0.00  -0.02  -0.00     0.06   0.07  -0.03
  70   1     0.05   0.03   0.00    -0.00  -0.03  -0.02     0.05   0.07   0.04
  71   1     0.02   0.00   0.02     0.01  -0.01   0.03    -0.03   0.05  -0.08
  72   1     0.01  -0.00   0.02     0.01  -0.01   0.03    -0.03   0.05  -0.08
  73   1     0.00  -0.01   0.02    -0.01  -0.01   0.02     0.03   0.08  -0.05
  74   1     0.01   0.02   0.01    -0.01  -0.01   0.00     0.02   0.01   0.05
  75   1     0.01   0.02   0.02    -0.00  -0.01  -0.00     0.03   0.01   0.04
  76   1     0.00   0.02   0.02     0.00  -0.02  -0.01     0.01   0.01   0.06
  77   1    -0.02   0.01  -0.01     0.00   0.01  -0.02    -0.00  -0.00   0.05
  78   1    -0.02   0.03  -0.01    -0.00   0.02  -0.02     0.01  -0.03   0.05
  79   1    -0.02   0.02  -0.00    -0.00   0.03  -0.01     0.01  -0.04   0.03
  80   1     0.01  -0.02   0.03    -0.00  -0.03   0.05    -0.00   0.08  -0.11
  81   1     0.02   0.00   0.04     0.02   0.00   0.05    -0.07   0.01  -0.13
  82   1     0.02  -0.00   0.05     0.01  -0.02   0.05    -0.04   0.05  -0.13
  83   1    -0.01  -0.01   0.01    -0.00   0.01   0.02     0.01  -0.05  -0.07
  84   1    -0.01  -0.01   0.01    -0.01   0.01   0.02     0.06  -0.01  -0.06
  85   1    -0.00  -0.01   0.01    -0.02  -0.00   0.02     0.05  -0.02  -0.07
  86   1    -0.01  -0.01   0.02     0.03  -0.01   0.04     0.00  -0.02   0.03
  87   1    -0.02   0.00   0.02     0.03  -0.02   0.03    -0.00  -0.00   0.04
  88   1    -0.02   0.00   0.02     0.02   0.00   0.04     0.00   0.00   0.03
  89   1     0.02  -0.01  -0.02     0.03   0.06   0.01     0.00   0.04   0.03
  90   1     0.03  -0.02  -0.01     0.05   0.03   0.04     0.01   0.02   0.04
  91   1     0.02  -0.01  -0.02     0.05   0.03   0.04     0.01   0.01   0.05
  92   1    -0.01  -0.01  -0.02    -0.02  -0.00  -0.02    -0.01  -0.03  -0.04
  93   1     0.00  -0.00  -0.02    -0.01   0.01  -0.03     0.00  -0.02  -0.05
  94   1    -0.00  -0.01  -0.02    -0.01   0.00  -0.02    -0.02  -0.04  -0.02
  95   1    -0.01  -0.02  -0.01     0.01  -0.01  -0.02    -0.00  -0.03  -0.00
  96   1    -0.01  -0.02  -0.01    -0.00  -0.01  -0.01    -0.02  -0.03   0.02
  97   1    -0.00  -0.02  -0.02    -0.00  -0.01  -0.00    -0.01  -0.03   0.00
  98   1     0.00  -0.01   0.01    -0.02   0.02  -0.05    -0.01   0.00   0.01
  99   1    -0.00  -0.01   0.01     0.00   0.02  -0.06    -0.01   0.00   0.01
 100   1     0.01  -0.01   0.01    -0.03   0.02  -0.06    -0.00  -0.00   0.01
                     19                     20                     21
                        a                      a                      a 
 Frequencies --    79.6667                81.2211                82.1620
 Red. masses --    12.3405                11.5871                11.5941
 Frc consts  --     0.0000                 0.0000                 0.0000
 IR Inten    --     0.0829                 0.1109                 0.2137
 Raman Activ --     0.0000                 0.0000                 0.0000
 Depolar     --     0.0000                 0.0000                 0.0000
 Atom AN      X      Y      Z        X      Y      Z        X      Y      Z
   1   6     0.01  -0.05  -0.01    -0.06  -0.04   0.06     0.12   0.12  -0.09
   2  14     0.02  -0.07  -0.02     0.00  -0.00   0.00     0.02  -0.17  -0.05
   3   8     0.01  -0.06  -0.02     0.05  -0.01   0.01    -0.04  -0.21  -0.22
   4   6     0.02  -0.08   0.02     0.02  -0.01   0.01    -0.09  -0.35   0.22
   5   6    -0.04   0.01   0.03     0.04   0.08   0.01    -0.06  -0.04   0.03
   6  14    -0.01   0.00   0.00    -0.01   0.06  -0.01     0.01  -0.01   0.03
   7   8     0.01  -0.04  -0.02    -0.03   0.03  -0.06     0.06  -0.05   0.05
   8   6    -0.03  -0.00   0.02    -0.06  -0.01   0.07    -0.03   0.06   0.01
   9   6    -0.04  -0.02   0.02     0.07   0.02   0.11    -0.01  -0.02   0.03
  10  14     0.00   0.02  -0.03     0.04  -0.01   0.01    -0.00  -0.01  -0.00
  11   8     0.02   0.05  -0.02     0.02   0.07  -0.00     0.02   0.02   0.01
  12   6     0.03  -0.02  -0.08    -0.00  -0.01  -0.08     0.00  -0.02  -0.05
  13   6     0.07   0.06   0.02    -0.18  -0.13  -0.13    -0.00  -0.02   0.00
  14  14    -0.01  -0.04  -0.02     0.04   0.09  -0.00     0.00  -0.01  -0.00
  15   8    -0.01   0.02  -0.01     0.05  -0.12  -0.00    -0.01  -0.02   0.00
  16   6    -0.14  -0.05  -0.07     0.38   0.15   0.22     0.02   0.00   0.01
  17   6     0.16   0.06   0.01    -0.27  -0.02   0.00    -0.10  -0.05   0.03
  18  14     0.05  -0.01   0.01    -0.11   0.09  -0.09     0.01   0.00   0.04
  19   8     0.03  -0.12   0.02    -0.08   0.31  -0.08    -0.01   0.02  -0.03
  20   6     0.01  -0.01   0.01    -0.09  -0.04  -0.04     0.12   0.08   0.03
  21   6    -0.02   0.05  -0.09    -0.04   0.06  -0.04    -0.02   0.05  -0.06
  22  14    -0.06   0.05  -0.05     0.03  -0.06  -0.08    -0.03  -0.02   0.01
  23   8    -0.05   0.04   0.00     0.10  -0.03  -0.09     0.00  -0.01   0.08
  24   6    -0.03   0.12  -0.05    -0.01  -0.18  -0.06     0.01  -0.01   0.04
  25   6    -0.01   0.06  -0.18     0.05  -0.06   0.04     0.00  -0.05   0.10
  26  14    -0.03  -0.01  -0.10     0.00  -0.07  -0.03    -0.01   0.01  -0.01
  27   8    -0.05  -0.00  -0.05     0.02  -0.07  -0.07    -0.05  -0.07  -0.01
  28   6    -0.05   0.02  -0.04    -0.03  -0.01  -0.03    -0.02   0.06  -0.15
  29   6     0.07  -0.02  -0.04    -0.00   0.01   0.00     0.07  -0.03   0.11
  30  14     0.14  -0.12   0.02     0.04  -0.05   0.02     0.01   0.14  -0.00
  31   8     0.06  -0.07  -0.05    -0.00  -0.05  -0.01     0.04   0.10   0.03
  32   6     0.18  -0.05   0.09     0.08  -0.02   0.03    -0.10   0.05  -0.16
  33   6     0.10   0.17   0.20     0.03   0.06   0.07    -0.06  -0.12  -0.11
  34  14    -0.12   0.04   0.17    -0.05   0.01   0.07     0.05   0.04   0.07
  35   8     0.05  -0.13   0.04     0.00  -0.05   0.02     0.03   0.18  -0.01
  36   6    -0.16   0.18   0.11    -0.07   0.05   0.02     0.09   0.10   0.19
  37   6     0.09   0.32   0.07     0.04   0.12   0.03    -0.01   0.21  -0.09
  38  14    -0.07  -0.02   0.04     0.01  -0.01   0.04    -0.02  -0.01  -0.09
  39   8    -0.26  -0.03   0.10    -0.08  -0.01   0.04     0.02  -0.06   0.14
  40   6     0.04  -0.24  -0.07     0.04  -0.13   0.02    -0.02   0.09  -0.13
  41   1     0.00  -0.01  -0.00    -0.01  -0.02   0.03     0.03   0.05  -0.04
  42   1     0.00  -0.01  -0.00    -0.03  -0.01   0.01     0.07   0.04  -0.00
  43   1     0.00  -0.01  -0.00    -0.02  -0.01   0.02     0.03   0.06  -0.04
  44   1     0.01  -0.03   0.01     0.01  -0.00   0.00    -0.03  -0.14   0.05
  45   1     0.00  -0.03   0.00     0.01  -0.01  -0.00    -0.03  -0.13   0.07
  46   1     0.01  -0.02   0.01     0.01  -0.00   0.00    -0.03  -0.07   0.12
  47   1    -0.01  -0.00   0.02     0.01   0.02   0.00    -0.02  -0.01   0.01
  48   1    -0.02   0.00   0.01     0.02   0.02   0.01    -0.03  -0.01   0.00
  49   1    -0.02   0.00   0.01     0.01   0.03  -0.00    -0.02  -0.02   0.01
  50   1    -0.01  -0.00   0.01    -0.02  -0.01   0.02    -0.02   0.01  -0.00
  51   1    -0.01  -0.00   0.01    -0.03  -0.01   0.02    -0.00   0.02   0.01
  52   1    -0.01   0.00   0.01    -0.01  -0.00   0.04    -0.01   0.02   0.00
  53   1    -0.01  -0.01   0.01     0.02   0.02   0.04    -0.01  -0.00   0.01
  54   1    -0.02  -0.00   0.01     0.03   0.01   0.04    -0.01  -0.00   0.01
  55   1    -0.01  -0.02   0.01     0.03  -0.01   0.04    -0.00  -0.01   0.01
  56   1     0.01  -0.01  -0.03     0.00   0.01  -0.03     0.00  -0.00  -0.02
  57   1     0.00  -0.02  -0.02    -0.01  -0.01  -0.03    -0.00  -0.01  -0.02
  58   1     0.01  -0.00  -0.03    -0.01  -0.00  -0.03     0.00  -0.01  -0.02
  59   1     0.03   0.02   0.00    -0.08  -0.04  -0.04    -0.00  -0.00   0.00
  60   1     0.03   0.02   0.00    -0.08  -0.03  -0.03    -0.00  -0.01   0.00
  61   1     0.01   0.03   0.02    -0.03  -0.07  -0.07    -0.00  -0.01  -0.00
  62   1    -0.05  -0.03  -0.02     0.13   0.10   0.06     0.01   0.00   0.00
  63   1    -0.05  -0.02  -0.02     0.13   0.06   0.07     0.01   0.00   0.00
  64   1    -0.05   0.00  -0.03     0.13  -0.01   0.10     0.01  -0.00   0.01
  65   1     0.06   0.01   0.01    -0.09   0.01  -0.01    -0.04  -0.01  -0.00
  66   1     0.06   0.02   0.00    -0.10  -0.00  -0.00    -0.04  -0.02   0.01
  67   1     0.04   0.03  -0.01    -0.07  -0.03   0.03    -0.03  -0.03   0.02
  68   1    -0.00  -0.01   0.00    -0.02  -0.02  -0.02     0.05   0.03   0.01
  69   1     0.00  -0.00   0.00    -0.03  -0.01   0.00     0.04   0.03  -0.02
  70   1     0.00  -0.00  -0.00    -0.03  -0.02  -0.02     0.04   0.03   0.03
  71   1    -0.01   0.01  -0.03    -0.03   0.02  -0.02    -0.02   0.01  -0.03
  72   1    -0.01   0.01  -0.03    -0.01   0.03  -0.01    -0.01   0.02  -0.03
  73   1     0.00   0.02  -0.03    -0.01   0.03  -0.01     0.01   0.03  -0.02
  74   1     0.00   0.04  -0.03    -0.03  -0.06  -0.00     0.00  -0.00   0.01
  75   1    -0.01   0.04  -0.01     0.00  -0.06  -0.02     0.01  -0.00   0.01
  76   1    -0.01   0.04  -0.01     0.01  -0.07  -0.03    -0.00  -0.00   0.01
  77   1     0.00   0.01  -0.06     0.01  -0.01   0.02    -0.00  -0.00   0.04
  78   1    -0.00   0.02  -0.06     0.02  -0.02   0.02     0.00  -0.02   0.04
  79   1    -0.01   0.04  -0.05     0.02  -0.02   0.01     0.01  -0.03   0.03
  80   1    -0.01   0.01  -0.01    -0.01   0.00  -0.01     0.00   0.03  -0.04
  81   1    -0.02   0.01  -0.01    -0.01  -0.00  -0.01    -0.02   0.00  -0.05
  82   1    -0.02  -0.00  -0.01    -0.01  -0.00  -0.01    -0.01   0.02  -0.05
  83   1     0.02  -0.00  -0.01     0.00   0.01   0.00     0.02  -0.02   0.04
  84   1     0.03   0.00  -0.01     0.00   0.01   0.00     0.00  -0.03   0.04
  85   1     0.01  -0.01  -0.02    -0.01   0.00  -0.00     0.04  -0.01   0.04
  86   1     0.06  -0.01   0.03     0.03  -0.00   0.01    -0.04   0.02  -0.06
  87   1     0.06  -0.03   0.02     0.03  -0.01   0.00    -0.04   0.03  -0.05
  88   1     0.05   0.00   0.03     0.02   0.00   0.01    -0.02  -0.02  -0.06
  89   1     0.03   0.09   0.04     0.01   0.03   0.01    -0.01  -0.07  -0.02
  90   1     0.05   0.04   0.08     0.02   0.01   0.03    -0.03  -0.04  -0.05
  91   1     0.04   0.05   0.07     0.01   0.01   0.02    -0.03  -0.02  -0.05
  92   1    -0.07   0.06   0.05    -0.03   0.02   0.01     0.03   0.04   0.07
  93   1    -0.04   0.05   0.03    -0.02   0.02   0.00     0.01   0.02   0.08
  94   1    -0.04   0.07   0.01    -0.02   0.02   0.00     0.04   0.04   0.05
  95   1     0.02   0.11   0.04     0.01   0.04   0.02    -0.02   0.08  -0.01
  96   1     0.07   0.11  -0.02     0.03   0.04  -0.01     0.02   0.07  -0.05
  97   1     0.01   0.12   0.05     0.01   0.05   0.02    -0.01   0.08  -0.02
  98   1     0.05  -0.07  -0.01     0.03  -0.04   0.01    -0.01   0.03  -0.04
  99   1     0.00  -0.09  -0.03     0.00  -0.05   0.00     0.01   0.03  -0.04
 100   1    -0.00  -0.08  -0.03     0.01  -0.05   0.01    -0.02   0.04  -0.04
                     22                     23                     24
                        a                      a                      a 
 Frequencies --    94.3701                97.6240               102.1309
 Red. masses --    12.3557                11.3941                11.1583
 Frc consts  --     0.0000                 0.0000                 0.0000
 IR Inten    --     0.2153                 0.0434                 0.1509
 Raman Activ --     0.0000                 0.0000                 0.0000
 Depolar     --     0.0000                 0.0000                 0.0000
 Atom AN      X      Y      Z        X      Y      Z        X      Y      Z
   1   6     0.05   0.00  -0.04    -0.15  -0.04   0.08    -0.03   0.01   0.03
   2  14     0.07  -0.02  -0.06    -0.09   0.08   0.02    -0.03   0.03   0.03
   3   8     0.01   0.02  -0.01     0.18  -0.02  -0.06     0.01  -0.00   0.00
   4   6     0.16   0.05  -0.11    -0.21  -0.04   0.11    -0.06  -0.02   0.06
   5   6     0.06  -0.09  -0.07     0.27   0.08  -0.21     0.09   0.03  -0.06
   6  14     0.04  -0.06   0.03     0.02   0.05  -0.09     0.01   0.02  -0.02
   7   8     0.04  -0.10  -0.05    -0.11   0.23  -0.05    -0.03   0.08  -0.00
   8   6    -0.08   0.02   0.06     0.07  -0.02  -0.07     0.04  -0.02  -0.01
   9   6    -0.14  -0.03  -0.11     0.00   0.01  -0.17     0.00   0.00  -0.05
  10  14    -0.21  -0.05  -0.02    -0.11  -0.09   0.06    -0.01  -0.01  -0.01
  11   8     0.08  -0.05   0.09    -0.10  -0.19   0.04    -0.01  -0.02  -0.01
  12   6    -0.23  -0.03  -0.26    -0.13   0.05   0.30    -0.01   0.00  -0.01
  13   6     0.18   0.05   0.41     0.04  -0.00   0.07    -0.03  -0.01  -0.04
  14  14    -0.06   0.05   0.15    -0.01  -0.03   0.03    -0.00   0.00  -0.00
  15   8    -0.33  -0.00   0.16    -0.07  -0.02   0.03    -0.01  -0.00  -0.01
  16   6     0.07   0.03   0.06     0.01  -0.01   0.04     0.00   0.00  -0.01
  17   6    -0.09   0.00  -0.00     0.00  -0.02  -0.02     0.08   0.08   0.04
  18  14     0.03   0.05  -0.08     0.01  -0.02  -0.02    -0.01   0.00  -0.02
  19   8     0.00   0.06  -0.14     0.01  -0.03  -0.04    -0.00  -0.00   0.03
  20   6     0.15   0.05  -0.04     0.08   0.02  -0.01    -0.15  -0.13  -0.01
  21   6    -0.01   0.10  -0.03     0.01  -0.04   0.01     0.02   0.07  -0.06
  22  14     0.03   0.02   0.02    -0.00  -0.00  -0.02    -0.02  -0.01   0.17
  23   8     0.05   0.02  -0.03    -0.02  -0.00   0.00     0.03   0.00  -0.10
  24   6     0.04  -0.09   0.06    -0.02   0.04  -0.05     0.16  -0.32   0.42
  25   6     0.01   0.01   0.02     0.01   0.00   0.02    -0.13   0.12  -0.21
  26  14    -0.00   0.01   0.02     0.01   0.02   0.00    -0.07   0.07   0.01
  27   8    -0.01   0.01   0.02     0.02   0.00  -0.02    -0.19   0.13   0.23
  28   6    -0.00   0.01  -0.00     0.01   0.01  -0.01    -0.03   0.02   0.01
  29   6     0.02  -0.02  -0.02    -0.00   0.01   0.07     0.07  -0.01  -0.17
  30  14     0.01  -0.02   0.01    -0.01   0.03   0.01     0.09  -0.04  -0.08
  31   8     0.02  -0.01   0.02    -0.02   0.03  -0.00     0.12  -0.09   0.02
  32   6     0.02  -0.01  -0.01    -0.02   0.01  -0.01     0.11  -0.02  -0.16
  33   6     0.02   0.03   0.03     0.03  -0.03  -0.03    -0.04  -0.07  -0.10
  34  14     0.01  -0.00  -0.01     0.04  -0.01  -0.01    -0.00   0.01  -0.01
  35   8    -0.00  -0.02   0.01     0.01   0.02  -0.00     0.01   0.03  -0.03
  36   6    -0.01  -0.03  -0.04     0.02  -0.03  -0.03     0.03   0.07   0.09
  37   6    -0.01   0.02  -0.03    -0.02   0.23  -0.12     0.01  -0.01   0.01
  38  14     0.01   0.01  -0.01     0.12  -0.02  -0.03     0.00  -0.00   0.01
  39   8     0.01   0.01  -0.02     0.03  -0.02   0.00    -0.00  -0.01   0.02
  40   6     0.01  -0.02   0.01     0.10  -0.25   0.14    -0.00   0.02   0.00
  41   1     0.01   0.00  -0.01    -0.03  -0.02   0.04    -0.01   0.00   0.01
  42   1     0.02  -0.00  -0.01    -0.06  -0.01   0.02    -0.01   0.00   0.01
  43   1     0.01  -0.00  -0.01    -0.04  -0.02   0.03    -0.01   0.00   0.01
  44   1     0.05   0.04  -0.02    -0.07  -0.04   0.02    -0.02  -0.01   0.01
  45   1     0.05   0.02  -0.04    -0.07  -0.01   0.04    -0.02  -0.01   0.02
  46   1     0.05   0.01  -0.05    -0.07   0.00   0.06    -0.02  -0.00   0.03
  47   1     0.01  -0.02  -0.04     0.07   0.04  -0.09     0.02   0.02  -0.03
  48   1     0.02  -0.03  -0.02     0.11  -0.00  -0.04     0.04   0.00  -0.01
  49   1     0.03  -0.04  -0.02     0.10   0.03  -0.08     0.03   0.01  -0.02
  50   1    -0.04   0.00   0.00     0.03  -0.00  -0.01     0.02  -0.01   0.00
  51   1    -0.03   0.02   0.03     0.01  -0.01  -0.02     0.01  -0.01  -0.01
  52   1    -0.02   0.01   0.03     0.02  -0.01  -0.02     0.01  -0.01  -0.00
  53   1    -0.04  -0.02  -0.04     0.01  -0.01  -0.06     0.00  -0.00  -0.02
  54   1    -0.04  -0.01  -0.04     0.02  -0.01  -0.07     0.00  -0.00  -0.02
  55   1    -0.05   0.00  -0.04    -0.01   0.04  -0.06    -0.00   0.01  -0.02
  56   1    -0.05   0.03  -0.10    -0.06  -0.00   0.11    -0.00   0.00  -0.00
  57   1    -0.09  -0.03  -0.08    -0.01   0.06   0.10    -0.00  -0.00  -0.00
  58   1    -0.08  -0.02  -0.09    -0.05   0.00   0.10    -0.01  -0.00  -0.01
  59   1     0.06   0.02   0.15     0.01   0.00   0.02    -0.01  -0.00  -0.01
  60   1     0.11  -0.02   0.11     0.02  -0.00   0.02    -0.02   0.00  -0.01
  61   1     0.03   0.04   0.16     0.01   0.01   0.03    -0.01  -0.01  -0.02
  62   1     0.03   0.01   0.02     0.01   0.00   0.01     0.00  -0.00  -0.00
  63   1     0.02   0.02   0.01     0.00  -0.00   0.01     0.00   0.00  -0.00
  64   1     0.02  -0.00   0.03     0.00  -0.01   0.02     0.00  -0.00  -0.00
  65   1    -0.03   0.01  -0.01    -0.00  -0.00  -0.01     0.03   0.01   0.03
  66   1    -0.04   0.00  -0.00    -0.00  -0.01  -0.01     0.03   0.04   0.01
  67   1    -0.02  -0.01   0.02     0.00  -0.01  -0.00     0.02   0.04   0.00
  68   1     0.06   0.01  -0.02     0.03   0.01  -0.00    -0.06  -0.05  -0.01
  69   1     0.05   0.01  -0.02     0.03   0.01  -0.01    -0.06  -0.04   0.03
  70   1     0.05   0.02   0.01     0.02   0.01   0.01    -0.05  -0.05  -0.03
  71   1    -0.02   0.03  -0.01     0.01  -0.01   0.01    -0.01   0.02  -0.02
  72   1    -0.00   0.04  -0.01     0.00  -0.01   0.01    -0.01   0.03  -0.04
  73   1     0.01   0.04  -0.01    -0.00  -0.02   0.00     0.04   0.04  -0.02
  74   1    -0.00  -0.03   0.03     0.00   0.01  -0.02     0.01  -0.10   0.16
  75   1     0.02  -0.03   0.01    -0.01   0.02  -0.01     0.12  -0.11   0.10
  76   1     0.01  -0.03   0.02    -0.01   0.02  -0.02     0.05  -0.12   0.16
  77   1     0.00   0.00   0.01     0.00   0.00   0.01    -0.04   0.00  -0.08
  78   1     0.00   0.00   0.00     0.00   0.00   0.01    -0.05   0.05  -0.09
  79   1     0.01   0.00   0.01     0.00  -0.00   0.00    -0.03   0.06  -0.05
  80   1     0.00   0.00  -0.00     0.00   0.00  -0.00    -0.01   0.00   0.00
  81   1    -0.00   0.00  -0.00     0.00   0.00  -0.00    -0.01   0.01   0.01
  82   1    -0.00   0.00  -0.00     0.00   0.00  -0.00    -0.01   0.00   0.01
  83   1     0.00  -0.01  -0.01     0.01   0.01   0.03     0.01  -0.01  -0.06
  84   1     0.01  -0.00  -0.01    -0.01  -0.01   0.02     0.04   0.01  -0.05
  85   1     0.01  -0.01  -0.01     0.00   0.00   0.03     0.02  -0.00  -0.06
  86   1     0.00   0.00  -0.01    -0.01   0.00  -0.01     0.03   0.01  -0.06
  87   1     0.01  -0.00  -0.00    -0.01   0.01  -0.00     0.03  -0.01  -0.05
  88   1     0.01  -0.01  -0.01    -0.00  -0.00  -0.01     0.04  -0.02  -0.05
  89   1     0.00   0.02   0.01     0.01  -0.01  -0.01    -0.01  -0.04  -0.02
  90   1     0.01   0.01   0.01     0.01  -0.01  -0.01    -0.02  -0.03  -0.04
  91   1     0.01   0.00   0.01     0.01  -0.00  -0.01    -0.02  -0.01  -0.04
  92   1    -0.00  -0.01  -0.02     0.01  -0.01  -0.01     0.01   0.03   0.03
  93   1     0.00  -0.01  -0.02     0.01  -0.01  -0.01    -0.00   0.01   0.04
  94   1    -0.01  -0.01  -0.01     0.00  -0.01  -0.01     0.02   0.03   0.02
  95   1    -0.01   0.01  -0.00    -0.04   0.08  -0.01     0.01  -0.00   0.00
  96   1    -0.00   0.01  -0.01     0.01   0.08  -0.07     0.00  -0.00   0.00
  97   1    -0.00   0.01  -0.01    -0.01   0.09  -0.05     0.00  -0.00   0.01
  98   1     0.01  -0.00   0.00     0.06  -0.08   0.05    -0.01   0.01   0.00
  99   1    -0.00  -0.01   0.00    -0.02  -0.10   0.04     0.00   0.01   0.00
 100   1     0.01  -0.01   0.00     0.05  -0.09   0.06    -0.00   0.01   0.00
                     25                     26                     27
                        a                      a                      a 
 Frequencies --   103.2921               104.7888               111.6525
 Red. masses --    11.3406                10.7552                 9.7537
 Frc consts  --     0.0000                 0.0000                 0.0000
 IR Inten    --     0.4100                 0.4884                 0.8385
 Raman Activ --     0.0000                 0.0000                 0.0000
 Depolar     --     0.0000                 0.0000                 0.0000
 Atom AN      X      Y      Z        X      Y      Z        X      Y      Z
   1   6     0.05   0.02  -0.03    -0.04  -0.06   0.00    -0.06  -0.01   0.04
   2  14     0.04  -0.01  -0.01     0.07  -0.04  -0.12    -0.01   0.04  -0.03
   3   8     0.01   0.01   0.01     0.08  -0.03  -0.11    -0.02   0.03  -0.02
   4   6     0.06   0.02  -0.03     0.23   0.08  -0.20     0.09   0.11  -0.11
   5   6     0.02  -0.03  -0.01    -0.33   0.07   0.30     0.03   0.08   0.00
   6  14     0.01  -0.00   0.05    -0.09   0.01   0.01     0.01   0.07  -0.05
   7   8     0.03  -0.05  -0.00     0.05  -0.13  -0.05    -0.00   0.07  -0.03
   8   6    -0.13   0.05   0.11     0.13  -0.01  -0.14     0.17   0.03  -0.16
   9   6     0.06   0.03   0.10    -0.07  -0.04   0.13     0.01   0.01   0.02
  10  14     0.08   0.03   0.08    -0.07  -0.03   0.07    -0.01  -0.01   0.02
  11   8     0.05   0.02   0.06    -0.15  -0.01  -0.01    -0.05  -0.03  -0.01
  12   6     0.08   0.03   0.18    -0.02   0.01   0.23    -0.02   0.01   0.06
  13   6     0.04  -0.01   0.02     0.00  -0.01   0.04     0.04   0.00   0.09
  14  14     0.04  -0.00  -0.01    -0.01  -0.01   0.04     0.00   0.01   0.05
  15   8     0.10   0.02  -0.01    -0.01  -0.02   0.03    -0.02  -0.00   0.03
  16   6     0.02   0.00   0.01     0.04   0.02   0.10     0.01   0.01   0.04
  17   6    -0.29  -0.24  -0.09     0.04   0.03   0.02    -0.08  -0.10  -0.05
  18  14    -0.00  -0.10  -0.12    -0.02  -0.01   0.02     0.00  -0.01   0.04
  19   8     0.01   0.03  -0.11    -0.01  -0.00   0.03     0.00   0.01   0.02
  20   6     0.29   0.02  -0.05    -0.06  -0.04   0.01     0.03   0.07   0.02
  21   6     0.06  -0.28   0.02     0.00  -0.02   0.02    -0.03   0.08  -0.07
  22  14    -0.12  -0.07   0.03    -0.01  -0.01   0.04     0.00  -0.01  -0.04
  23   8    -0.08  -0.05  -0.03    -0.01  -0.00  -0.01     0.02  -0.02   0.06
  24   6    -0.03   0.06   0.04     0.02  -0.05   0.08    -0.02   0.01  -0.06
  25   6    -0.18   0.18  -0.28    -0.02   0.01  -0.00    -0.00  -0.02  -0.05
  26  14    -0.11   0.13  -0.03    -0.01   0.02   0.01    -0.02  -0.06  -0.02
  27   8    -0.15   0.12   0.09    -0.03   0.03   0.05     0.01  -0.06  -0.05
  28   6    -0.05   0.05   0.01     0.00   0.02  -0.03    -0.01  -0.08   0.16
  29   6     0.03  -0.02  -0.06     0.00   0.02   0.02     0.02  -0.04  -0.15
  30  14     0.00   0.01   0.00     0.01   0.03  -0.02    -0.01  -0.05   0.02
  31   8     0.01   0.03  -0.01     0.01  -0.00   0.01    -0.05  -0.01  -0.02
  32   6    -0.02   0.01   0.04     0.00   0.01  -0.07    -0.04  -0.02   0.33
  33   6     0.01   0.02   0.03     0.01  -0.01  -0.03    -0.01  -0.22  -0.26
  34  14     0.01   0.01  -0.01     0.06   0.00  -0.06    -0.00  -0.05   0.04
  35   8     0.01  -0.01  -0.01     0.01   0.03  -0.02     0.07  -0.08  -0.03
  36   6     0.01  -0.01  -0.01     0.05  -0.08  -0.08     0.05   0.26   0.33
  37   6     0.01  -0.00   0.01    -0.07   0.27  -0.19     0.03  -0.01  -0.00
  38  14     0.01   0.01   0.01     0.08   0.03  -0.10    -0.04  -0.04  -0.06
  39   8     0.01   0.01  -0.01     0.07   0.02  -0.04    -0.06  -0.07   0.05
  40   6     0.01  -0.01   0.01     0.05  -0.09   0.03    -0.03   0.09  -0.13
  41   1     0.01   0.01  -0.01    -0.00  -0.02   0.02    -0.01  -0.01   0.02
  42   1     0.02   0.00  -0.01    -0.03  -0.02  -0.00    -0.03  -0.01   0.00
  43   1     0.02   0.01  -0.01    -0.02  -0.02   0.01    -0.03  -0.01   0.02
  44   1     0.02   0.01  -0.01     0.08   0.06  -0.04     0.03   0.06  -0.02
  45   1     0.02   0.01  -0.01     0.08   0.02  -0.07     0.03   0.04  -0.04
  46   1     0.02   0.00  -0.02     0.08   0.01  -0.09     0.03   0.02  -0.06
  47   1     0.00  -0.00  -0.01    -0.08  -0.02   0.14     0.01   0.02   0.01
[...]
  62   1     0.02  -0.00   0.09    -0.00   0.00  -0.01    -0.03   0.00  -0.11
  63   1    -0.03   0.02   0.01     0.01  -0.00  -0.00     0.02  -0.02  -0.01
  64   1     0.01   0.00  -0.00    -0.00  -0.00  -0.00     0.07   0.04   0.01
  65   1     0.02   0.04   0.01    -0.01  -0.02  -0.01    -0.04  -0.07  -0.02
  66   1    -0.01   0.01   0.06     0.00  -0.00  -0.01     0.01  -0.00  -0.05
  67   1    -0.06  -0.00   0.01     0.01   0.00  -0.00     0.05   0.00  -0.01
  68   1    -0.00   0.01  -0.01     0.00  -0.00   0.00     0.04  -0.05   0.04
  69   1     0.01   0.04   0.01    -0.01  -0.04  -0.01    -0.05  -0.12  -0.03
  70   1    -0.04  -0.00   0.01     0.01   0.00  -0.00     0.04   0.01  -0.01
  71   1    -0.01   0.07  -0.00     0.00  -0.00   0.00     0.02  -0.09  -0.00
  72   1    -0.03   0.01   0.02    -0.00   0.00   0.00     0.01   0.00  -0.00
  73   1     0.02  -0.03   0.08    -0.00   0.00  -0.01    -0.02   0.03  -0.08
  74   1    -0.01   0.06   0.00     0.00  -0.00  -0.00     0.01  -0.08  -0.00
  75   1     0.01  -0.03   0.05    -0.00   0.00  -0.01    -0.02   0.05  -0.10
  76   1     0.06   0.03   0.02    -0.01  -0.00  -0.00    -0.11  -0.05  -0.04
  77   1    -0.05   0.03  -0.05    -0.01   0.01  -0.01    -0.05   0.05  -0.06
  78   1     0.01   0.00   0.00    -0.02  -0.02  -0.00    -0.16  -0.16  -0.06
  79   1    -0.02  -0.02   0.04    -0.00  -0.00   0.01    -0.13  -0.08   0.26
  80   1    -0.04   0.02  -0.03    -0.02   0.01  -0.02    -0.14   0.09  -0.10
  81   1     0.01   0.00  -0.02    -0.01  -0.00   0.01    -0.08  -0.05   0.21
  82   1    -0.03   0.06   0.04     0.03  -0.07  -0.04     0.20  -0.45  -0.26
  83   1    -0.14   0.05   0.15    -0.02   0.01   0.02    -0.04   0.02   0.05
  84   1    -0.05   0.02  -0.14    -0.01   0.00  -0.03    -0.02   0.01  -0.05
  85   1    -0.03   0.18  -0.01    -0.00   0.03  -0.00     0.02  -0.09   0.01
  86   1    -0.15   0.06   0.19    -0.03   0.01   0.04    -0.03   0.03   0.06
  87   1     0.04   0.02   0.00    -0.02  -0.02  -0.00    -0.26  -0.18  -0.02
  88   1    -0.11   0.05  -0.24    -0.01   0.01  -0.03    -0.01   0.01  -0.04
  89   1    -0.10  -0.05  -0.10     0.05   0.02   0.05     0.01   0.00   0.00
  90   1    -0.14  -0.10   0.11     0.06   0.04  -0.05    -0.07  -0.04   0.05
  91   1    -0.12   0.23   0.22    -0.00  -0.00  -0.00    -0.01   0.02   0.01
  92   1    -0.00   0.03  -0.02    -0.01   0.01  -0.01     0.07  -0.18   0.11
  93   1    -0.18  -0.07  -0.16     0.12   0.04   0.10     0.00   0.01  -0.00
  94   1    -0.11   0.21   0.22    -0.02   0.03   0.03    -0.03   0.05   0.04
  95   1     0.02  -0.04   0.06    -0.07   0.10  -0.13     0.02  -0.04   0.05
  96   1    -0.00  -0.01  -0.00    -0.01  -0.05  -0.01    -0.00   0.02   0.00
  97   1     0.01   0.01   0.00     0.23   0.06   0.05     0.00   0.00  -0.00
  98   1    -0.00   0.03   0.01    -0.02   0.02   0.04     0.00   0.03   0.01
  99   1     0.01  -0.03   0.03    -0.05   0.06  -0.05     0.02  -0.03   0.03
 100   1     0.02  -0.00  -0.04     0.50  -0.04  -0.67    -0.04   0.00   0.06
                    289                    290                    291
                        a                      a                      a 
 Frequencies --  2971.9104              2972.7598              2973.3856
 Red. masses --     1.7581                 1.7445                 1.6936
 Frc consts  --     0.0000                 0.0000                 0.0000
 IR Inten    --    19.9467                 8.4288                35.6240
 Raman Activ --     0.0000                 0.0000                 0.0000
 Depolar     --     0.0000                 0.0000                 0.0000
 Atom AN      X      Y      Z        X      Y      Z        X      Y      Z
   1   6    -0.01  -0.01   0.01     0.02   0.03  -0.02     0.00   0.02   0.02
   2  14    -0.00  -0.00   0.00     0.00   0.00  -0.00     0.00   0.00  -0.00
   3   8     0.00   0.00  -0.00    -0.00  -0.00   0.00    -0.00   0.00   0.00
   4   6     0.00  -0.00   0.01    -0.00   0.01  -0.01    -0.00   0.00   0.00
   5   6     0.03   0.03   0.04    -0.06  -0.06  -0.08    -0.12  -0.08  -0.15
   6  14     0.00   0.00   0.00    -0.00  -0.00  -0.00    -0.00  -0.00  -0.00
   7   8    -0.00  -0.00  -0.00     0.00  -0.00   0.00     0.00   0.00   0.00
   8   6     0.00   0.01   0.00    -0.01  -0.01  -0.01    -0.01   0.00  -0.02
   9   6    -0.02  -0.03  -0.00     0.01   0.01  -0.01    -0.03  -0.04   0.01
  10  14     0.00  -0.00  -0.00    -0.00   0.00  -0.00    -0.00  -0.00   0.00
  11   8    -0.00   0.00   0.00     0.00  -0.00   0.00     0.00   0.00   0.00
  12   6     0.01  -0.01   0.00    -0.01   0.01  -0.01    -0.01  -0.00  -0.01
  13   6    -0.00  -0.01   0.01     0.00   0.00   0.01     0.00  -0.00   0.00
  14  14     0.00  -0.00  -0.00    -0.00   0.00   0.00     0.00  -0.00   0.00
  15   8    -0.00   0.00   0.00     0.00  -0.00  -0.00     0.00   0.00  -0.00
  16   6     0.01  -0.00  -0.01    -0.01   0.01   0.03     0.01  -0.00   0.00
  17   6     0.01  -0.04  -0.04    -0.00   0.05   0.05     0.01  -0.03  -0.03
  18  14    -0.00  -0.00  -0.00     0.00   0.00   0.00    -0.00  -0.00  -0.00
  19   8    -0.00   0.00   0.00    -0.00  -0.00  -0.00    -0.00   0.00   0.00
  20   6    -0.01  -0.10  -0.03     0.03   0.13   0.05    -0.01  -0.09  -0.03
  21   6     0.01  -0.00  -0.00     0.01  -0.01   0.00    -0.00   0.00   0.00
  22  14     0.00  -0.00   0.00     0.00  -0.00   0.00    -0.00   0.00   0.00
  23   8    -0.00   0.00   0.00    -0.00  -0.00  -0.00    -0.00   0.00  -0.00
  24   6     0.03   0.00   0.02     0.01  -0.01   0.02    -0.00   0.00  -0.00
  25   6     0.09   0.03  -0.10     0.05   0.01  -0.05    -0.01  -0.00   0.01
  26  14     0.00   0.00  -0.00     0.00  -0.00  -0.00    -0.00   0.00   0.00
  27   8    -0.00  -0.00   0.00    -0.00   0.00   0.00     0.00  -0.00  -0.00
  28   6     0.08  -0.04  -0.12     0.06  -0.06  -0.09    -0.02   0.02   0.02
  29   6    -0.01   0.01   0.00    -0.01  -0.00   0.01    -0.00   0.00  -0.00
  30  14    -0.00  -0.00   0.00    -0.00  -0.00   0.00     0.00   0.00  -0.00
  31   8    -0.00   0.00   0.00    -0.00   0.00   0.00    -0.00  -0.00   0.00
  32   6    -0.03  -0.01  -0.00    -0.04  -0.02   0.01     0.00   0.01  -0.01
  33   6    -0.01   0.00   0.01    -0.00  -0.00   0.01     0.00  -0.00  -0.00
  34  14     0.00  -0.00   0.00     0.00  -0.00   0.00    -0.00  -0.00  -0.00
  35   8     0.00   0.00  -0.00     0.00   0.00  -0.00     0.00  -0.00   0.00
  36   6     0.00  -0.01   0.02     0.01  -0.02   0.03    -0.00   0.00  -0.01
  37   6     0.00   0.00   0.01     0.00  -0.00   0.00    -0.00  -0.00   0.00
  38  14    -0.00   0.00   0.00     0.00   0.00   0.00     0.00  -0.00   0.00
  39   8     0.00  -0.00  -0.00     0.00  -0.00  -0.00    -0.00   0.00   0.00
  40   6    -0.00   0.00   0.01     0.00   0.00  -0.00     0.00  -0.00  -0.00
  41   1     0.04  -0.00  -0.03    -0.06   0.01   0.03    -0.01   0.00   0.01
  42   1     0.00   0.04  -0.02    -0.02  -0.10   0.05     0.00   0.01  -0.00
  43   1    -0.00  -0.01  -0.01     0.00  -0.01  -0.01    -0.01  -0.07  -0.06
  44   1     0.01  -0.00  -0.01    -0.01   0.00   0.01     0.01   0.00  -0.01
  45   1    -0.02   0.00  -0.02     0.02  -0.00   0.02     0.00  -0.00   0.00
  46   1     0.00   0.00  -0.00    -0.00  -0.03   0.01    -0.00  -0.01   0.00
  47   1     0.02  -0.01  -0.01    -0.03   0.01   0.01    -0.00  -0.02  -0.03
  48   1    -0.03  -0.03   0.03     0.02   0.02  -0.03    -0.03  -0.02  -0.01
  49   1    -0.11  -0.08  -0.14     0.23   0.17   0.30     0.45   0.33   0.59
  50   1     0.03  -0.03  -0.02    -0.03   0.03   0.03    -0.04   0.04   0.03
  51   1    -0.01   0.01  -0.01     0.02  -0.03   0.03     0.05  -0.07   0.06
  52   1    -0.03  -0.02   0.02     0.04   0.03  -0.03     0.04   0.03  -0.03
  53   1     0.02  -0.00   0.02     0.02   0.00   0.01     0.03  -0.00   0.03
  54   1     0.08   0.13  -0.03    -0.03  -0.05   0.01     0.08   0.14  -0.03
  55   1    -0.01  -0.00   0.02    -0.01   0.00   0.02     0.01  -0.01  -0.04
  56   1     0.00  -0.00   0.00     0.02   0.01   0.02     0.04   0.01   0.04
  57   1     0.00  -0.00  -0.01    -0.01   0.00   0.01     0.01  -0.00  -0.02
  58   1    -0.03   0.05  -0.00     0.02  -0.04  -0.00    -0.01   0.01  -0.00
  59   1    -0.00   0.02  -0.01     0.00  -0.01   0.00    -0.00   0.02  -0.01
  60   1    -0.00  -0.00  -0.02    -0.01  -0.00  -0.06     0.00  -0.00   0.00
  61   1     0.01   0.00   0.00     0.00   0.00   0.00    -0.01  -0.01  -0.00
  62   1     0.01  -0.00   0.03    -0.02   0.00  -0.06    -0.00   0.00  -0.02
  63   1    -0.03   0.03   0.02     0.06  -0.04  -0.04    -0.02   0.01   0.01
  64   1    -0.01  -0.01  -0.00     0.01   0.01   0.01    -0.02  -0.01  -0.00
  65   1     0.07   0.14   0.04    -0.09  -0.17  -0.05     0.06   0.12   0.04
  66   1    -0.01   0.00   0.09     0.01  -0.01  -0.10    -0.01   0.00   0.05
  67   1    -0.09  -0.00   0.01     0.08   0.00  -0.01    -0.08  -0.00   0.01
  68   1    -0.01  -0.00  -0.01    -0.01   0.04  -0.01     0.00  -0.02  -0.00
  69   1     0.14   0.39   0.11    -0.18  -0.51  -0.14     0.13   0.36   0.10
  70   1    -0.11  -0.02   0.02     0.09   0.03  -0.01    -0.08  -0.02   0.02
  71   1     0.00  -0.01  -0.00    -0.00   0.02   0.00     0.00  -0.01  -0.00
  72   1    -0.03   0.01   0.02    -0.01   0.00   0.01     0.01  -0.00  -0.00
  73   1    -0.00   0.00  -0.01    -0.00   0.01  -0.02    -0.00   0.00  -0.00
  74   1     0.00   0.03   0.01    -0.00   0.03   0.01     0.00  -0.01  -0.00
  75   1    -0.01   0.02  -0.04    -0.01   0.02  -0.05     0.00  -0.00   0.01
  76   1    -0.11  -0.05  -0.04    -0.04  -0.02  -0.01    -0.00  -0.00  -0.00
  77   1    -0.06   0.05  -0.08    -0.05   0.04  -0.06     0.01  -0.01   0.02
  78   1    -0.02  -0.03  -0.02     0.01   0.00  -0.01    -0.00  -0.00   0.00
  79   1    -0.24  -0.15   0.46    -0.12  -0.08   0.24     0.02   0.01  -0.04
  80   1    -0.04   0.02  -0.05    -0.02   0.01  -0.04     0.01  -0.01   0.01
  81   1    -0.15  -0.13   0.37    -0.09  -0.08   0.21     0.01   0.01  -0.04
  82   1    -0.09   0.23   0.12    -0.12   0.29   0.16     0.03  -0.07  -0.04
  83   1     0.03  -0.01  -0.03     0.02  -0.01  -0.02    -0.00   0.00   0.00
  84   1     0.00  -0.00   0.01     0.00  -0.00   0.00     0.00  -0.00   0.01
  85   1     0.00  -0.01   0.00    -0.01   0.02  -0.00     0.00  -0.01   0.00
  86   1     0.02  -0.01  -0.02     0.01  -0.01  -0.02     0.00   0.00  -0.00
  87   1     0.09   0.06   0.01     0.15   0.10   0.01    -0.04  -0.02  -0.00
  88   1     0.00  -0.00   0.02    -0.01  -0.00  -0.01     0.02  -0.01   0.03
  89   1    -0.01  -0.00  -0.00    -0.01  -0.01  -0.01     0.00   0.00   0.00
  90   1     0.03   0.02  -0.02     0.02   0.01  -0.01    -0.00  -0.00   0.00
  91   1     0.01  -0.02  -0.02     0.00  -0.01  -0.00    -0.00   0.00   0.00
  92   1    -0.03   0.08  -0.05    -0.04   0.11  -0.06     0.00  -0.01   0.01
  93   1     0.00  -0.00   0.01    -0.01  -0.01  -0.01     0.01   0.00   0.01
  94   1     0.03  -0.05  -0.04     0.02  -0.03  -0.03    -0.00   0.01   0.01
  95   1    -0.01   0.02  -0.02    -0.00   0.01  -0.01    -0.00   0.00  -0.00
  96   1    -0.00  -0.02  -0.01     0.00  -0.00  -0.00     0.00   0.00   0.00
  97   1     0.00   0.00   0.00    -0.00  -0.00  -0.00     0.00   0.00   0.00
  98   1    -0.00  -0.03  -0.01     0.00  -0.01  -0.00     0.00   0.01   0.00
  99   1    -0.01   0.02  -0.01    -0.00   0.01  -0.01    -0.00   0.00  -0.00
 100   1     0.01  -0.00  -0.02    -0.01   0.00   0.01    -0.00  -0.00   0.00
                    292                    293                    294
                        a                      a                      a 
 Frequencies --  2974.0529              2979.1493              2981.0071
 Red. masses --     1.7561                 1.7643                 1.7280
 Frc consts  --     0.0000                 0.0000                 0.0000
 IR Inten    --    18.5676                18.1136                 5.9158
 Raman Activ --     0.0000                 0.0000                 0.0000
 Depolar     --     0.0000                 0.0000                 0.0000
 Atom AN      X      Y      Z        X      Y      Z        X      Y      Z
   1   6     0.00   0.00  -0.00    -0.00   0.10   0.10     0.01   0.16   0.14
   2  14     0.00   0.00  -0.00     0.00   0.00   0.00     0.00   0.00   0.00
   3   8    -0.00  -0.00   0.00    -0.00   0.00  -0.00    -0.00   0.00  -0.00
   4   6     0.00   0.00  -0.00     0.00   0.01   0.01     0.01   0.01   0.01
   5   6     0.01   0.00   0.02     0.01   0.01   0.00     0.01   0.01   0.01
   6  14     0.00  -0.00   0.00     0.00   0.00   0.00     0.00   0.00   0.00
   7   8    -0.00   0.00   0.00    -0.00  -0.00  -0.00    -0.00  -0.00  -0.00
   8   6     0.00  -0.01   0.01     0.00   0.00   0.00     0.00  -0.00   0.00
   9   6    -0.14  -0.20   0.06     0.01   0.01  -0.00    -0.00  -0.00  -0.00
  10  14    -0.00  -0.00   0.00     0.00   0.00   0.00    -0.00  -0.00  -0.00
  11   8     0.00   0.00  -0.00    -0.00  -0.00  -0.00    -0.00  -0.00   0.00
  12   6    -0.00  -0.03   0.01     0.00  -0.00   0.00    -0.00  -0.00  -0.00
  13   6     0.00  -0.01   0.00     0.00   0.00  -0.00    -0.00  -0.00   0.00
  14  14    -0.00  -0.00   0.00     0.00   0.00  -0.00    -0.00  -0.00   0.00
  15   8     0.00   0.00  -0.00    -0.00  -0.00   0.00     0.00   0.00  -0.00
  16   6    -0.01  -0.00  -0.00    -0.00   0.00  -0.01     0.00  -0.00   0.00
  17   6    -0.00   0.01   0.01    -0.01   0.01  -0.01     0.00  -0.00   0.01
  18  14     0.00   0.00   0.00    -0.00   0.00  -0.00     0.00  -0.00   0.00
  19   8    -0.00  -0.00  -0.00    -0.00  -0.00   0.00     0.00   0.00  -0.00
  20   6     0.00   0.04   0.01    -0.12   0.15  -0.11     0.06  -0.08   0.08
  21   6    -0.00  -0.00  -0.00     0.00  -0.00  -0.00    -0.00   0.00   0.00
  22  14    -0.00  -0.00  -0.00    -0.00  -0.00  -0.00     0.00   0.00   0.00
  23   8     0.00  -0.00   0.00     0.00   0.00   0.00    -0.00  -0.00  -0.00
  24   6    -0.01  -0.00  -0.00    -0.00  -0.00  -0.00     0.00   0.00   0.00
  25   6    -0.02  -0.01   0.01     0.00  -0.00   0.00    -0.00   0.00  -0.00
  26  14    -0.00  -0.00   0.00     0.00  -0.00   0.00    -0.00   0.00  -0.00
  27   8     0.00   0.00  -0.00     0.00   0.00   0.00     0.00  -0.00  -0.00
  28   6    -0.02  -0.02   0.00     0.01  -0.01  -0.00    -0.01   0.01   0.00
  29   6    -0.00   0.00   0.00    -0.00   0.00  -0.00    -0.00   0.00  -0.00
  30  14    -0.00  -0.00   0.00    -0.00  -0.00  -0.00     0.00   0.00  -0.00
  31   8     0.00   0.00  -0.00     0.00   0.00  -0.00    -0.00  -0.00   0.00
  32   6    -0.01  -0.00   0.00    -0.01   0.01  -0.01    -0.00   0.01  -0.01
  33   6     0.00   0.00   0.00     0.00  -0.00  -0.00    -0.00   0.00  -0.00
  34  14     0.00   0.00   0.00     0.00  -0.00   0.00     0.00  -0.00  -0.00
  35   8    -0.00  -0.00  -0.00    -0.00   0.00  -0.00     0.00  -0.00   0.00
  36   6     0.00  -0.00   0.01     0.00  -0.00   0.00    -0.00   0.00  -0.00
  37   6     0.00   0.00  -0.00     0.00   0.00   0.00     0.00   0.00   0.00
  38  14     0.00   0.00  -0.00     0.00  -0.00   0.00     0.00  -0.00   0.00
  39   8    -0.00   0.00   0.00    -0.00   0.00  -0.00    -0.00   0.00   0.00
  40   6     0.00   0.00  -0.00     0.00   0.00   0.00     0.00   0.00   0.00
  41   1    -0.01   0.00   0.00     0.05   0.01  -0.01     0.02   0.02   0.01
  42   1    -0.00  -0.02   0.01    -0.00  -0.01   0.03    -0.01  -0.03   0.04
  43   1     0.00   0.01   0.00    -0.04  -0.36  -0.35    -0.05  -0.56  -0.56
  44   1    -0.00   0.00   0.00     0.03   0.00  -0.02     0.03   0.00  -0.02
  45   1    -0.00   0.00  -0.00    -0.04   0.01  -0.03    -0.05   0.01  -0.04
  46   1    -0.00  -0.01   0.00    -0.00  -0.03   0.02    -0.00  -0.04   0.02
  47   1    -0.01   0.01   0.01     0.01  -0.00  -0.00    -0.00   0.01   0.01
  48   1     0.04   0.03  -0.02    -0.01  -0.01   0.01    -0.00  -0.00   0.00
  49   1    -0.05  -0.04  -0.07    -0.02  -0.01  -0.02    -0.04  -0.03  -0.06
  50   1     0.00  -0.00  -0.00     0.01  -0.01  -0.01     0.00  -0.00  -0.00
  51   1    -0.02   0.03  -0.02    -0.01   0.01  -0.01    -0.00   0.01  -0.01
  52   1     0.01   0.01  -0.01    -0.01  -0.00   0.00    -0.00  -0.00   0.00
  53   1     0.01  -0.02   0.03    -0.01  -0.00  -0.01     0.00   0.00   0.00
  54   1     0.46   0.74  -0.17    -0.01  -0.02   0.01     0.00   0.00  -0.00
  55   1     0.03  -0.03  -0.09    -0.00   0.00   0.01    -0.00   0.00   0.00
  56   1     0.05   0.00   0.06    -0.01  -0.00  -0.01     0.00   0.00   0.00
  57   1     0.04  -0.01  -0.08    -0.00   0.00   0.00    -0.00  -0.00  -0.00
  58   1    -0.09   0.12  -0.00    -0.00   0.00   0.00    -0.00   0.00  -0.00
  59   1    -0.00   0.04  -0.01     0.00  -0.01   0.00    -0.00   0.00  -0.00
  60   1    -0.00  -0.00  -0.00     0.00   0.00   0.02    -0.00  -0.00  -0.00
  61   1     0.00  -0.00   0.00    -0.01  -0.00  -0.00     0.00   0.00   0.00
  62   1     0.00  -0.00   0.01     0.00  -0.00   0.02    -0.00   0.00  -0.01
  63   1     0.00  -0.00  -0.00    -0.00   0.00  -0.00    -0.00   0.00   0.00
  64   1     0.02   0.01   0.00    -0.00  -0.00  -0.00     0.00   0.00   0.00
  65   1    -0.02  -0.05  -0.02    -0.02  -0.03  -0.01     0.01   0.01   0.01
  66   1     0.00  -0.00  -0.02    -0.01   0.01   0.08     0.01  -0.01  -0.05
  67   1     0.03   0.00  -0.00     0.06  -0.00  -0.01    -0.02  -0.00   0.00
  68   1     0.01  -0.01   0.01     0.41  -0.54   0.42    -0.27   0.35  -0.27
  69   1    -0.05  -0.15  -0.04    -0.02   0.01  -0.02    -0.00  -0.04   0.00
  70   1     0.03   0.01  -0.01     0.03   0.02  -0.03     0.05  -0.01   0.00
  71   1    -0.00   0.01   0.00    -0.00   0.01  -0.00    -0.00  -0.00   0.00
  72   1     0.00  -0.00  -0.00    -0.00   0.00   0.00     0.01  -0.00  -0.00
  73   1     0.00  -0.00   0.01     0.00  -0.00   0.01    -0.00   0.00  -0.00
  74   1    -0.00   0.00  -0.00    -0.00   0.01   0.00     0.00  -0.00  -0.00
  75   1     0.00  -0.00   0.01     0.00  -0.00   0.01    -0.00   0.00  -0.00
  76   1     0.02   0.01   0.01     0.01   0.00   0.00    -0.01  -0.00  -0.00
  77   1     0.02  -0.02   0.02    -0.00   0.00  -0.00     0.01  -0.00   0.00
  78   1     0.02   0.02   0.01     0.00   0.00   0.00     0.00   0.00   0.00
  79   1     0.03   0.02  -0.07     0.00   0.00  -0.00    -0.00  -0.00   0.00
  80   1     0.07  -0.04   0.05    -0.01   0.00  -0.01     0.01  -0.00   0.01
  81   1     0.04   0.03  -0.11     0.00  -0.00  -0.01    -0.00   0.00   0.00
  82   1    -0.04   0.08   0.05    -0.02   0.05   0.03     0.01  -0.03  -0.02
  83   1     0.00  -0.00  -0.00     0.01  -0.00  -0.01     0.00  -0.00  -0.00
  84   1     0.00  -0.00   0.00     0.00  -0.00   0.01     0.00  -0.00   0.01
  85   1    -0.00   0.00  -0.00     0.00  -0.01   0.00     0.00  -0.01   0.00
  86   1     0.00  -0.00  -0.01     0.02  -0.01  -0.03     0.02  -0.01  -0.03
  87   1     0.02   0.01   0.00    -0.00  -0.00  -0.00    -0.05  -0.03  -0.00
  88   1    -0.00  -0.00   0.00     0.03  -0.01   0.07     0.03  -0.01   0.05
  89   1    -0.00  -0.00  -0.00    -0.00  -0.00  -0.00     0.00   0.00   0.00
  90   1     0.00   0.00  -0.00     0.00   0.00  -0.00    -0.00  -0.00   0.00
  91   1     0.00  -0.00  -0.00    -0.00   0.00   0.00     0.00  -0.00  -0.00
  92   1    -0.01   0.02  -0.01    -0.00   0.01  -0.00     0.00  -0.01   0.01
  93   1    -0.01  -0.00  -0.01    -0.00  -0.00  -0.00     0.00   0.00   0.00
  94   1     0.00  -0.01  -0.00    -0.00   0.00   0.00     0.00  -0.00  -0.00
  95   1     0.00  -0.00   0.00    -0.00   0.00  -0.00     0.00   0.00  -0.00
  96   1     0.00  -0.00  -0.00     0.00  -0.01  -0.00     0.00  -0.00  -0.00
  97   1    -0.00  -0.00  -0.00    -0.01  -0.00  -0.00    -0.01  -0.00  -0.00
  98   1     0.00  -0.00  -0.00    -0.00  -0.01  -0.00    -0.00  -0.01  -0.00
  99   1     0.00  -0.00   0.00    -0.00   0.01  -0.01    -0.00   0.00  -0.00
 100   1    -0.01   0.00   0.01    -0.00   0.00   0.00    -0.00   0.00   0.00
