 Entering Gaussian System
 *********************************************
 Gaussian 98:
 frequency output generated by the xtb code
 *********************************************
                         Standard orientation:
 --------------------------------------------------------------------
  Center     Atomic     Atomic              Coordinates (Angstroms)
  Number     Number      Type              X           Y           Z
 --------------------------------------------------------------------
    1          6             0       -3.197768    0.292509  -13.875304
    2          6             0       -2.180359    0.294250  -12.910964
    3          6             0       -1.999457    1.425957  -12.088115
    4          6             0       -2.549898    2.645539  -12.525590
    5          6             0       -3.610225    2.629789  -13.434092
    6          6             0       -4.062652    1.400720  -13.952826
    7          6             0       -2.691741    1.838555   -9.720810
    8          6             0       -3.088268    1.194265   -8.546071
    9          6             0       -2.553639   -0.063149   -8.214185
   10          6             0       -1.459658   -0.546839   -8.960935
   11          6             0       -1.081047    0.085409  -10.155696
   12          6             0       -1.806818    1.197786  -10.619892
   13          6             0       -4.002679   -0.404585   -6.170720
   14          6             0       -4.843223   -1.214425   -5.398482
   15          6             0       -4.975737   -2.584221   -5.684141
   16          6             0       -4.249090   -3.122248   -6.759251
   17          6             0       -3.426579   -2.310553   -7.539827
   18          6             0       -3.289433   -0.941714   -7.259170
   19          6             0       -5.826497   -3.281402   -3.435949
   20          6             0       -6.389128   -4.240132   -2.594822
   21          6             0       -6.923695   -5.429122   -3.121909
   22          6             0       -7.002792   -5.577465   -4.517013
   23          6             0       -6.457849   -4.602028   -5.362075
   24          6             0       -5.801727   -3.474177   -4.825582
   25          6             0       -7.683541   -6.392988   -0.946439
   26          6             0       -7.407335   -7.293756    0.087031
   27          6             0       -6.548069   -8.385465   -0.136791
   28          6             0       -6.160837   -8.681148   -1.454481
   29          6             0       -6.454882   -7.789912   -2.490149
   30          6             0       -7.123244   -6.584445   -2.221108
   31          6             0       -5.320268   -8.191489    2.024278
   32          6             0       -4.426816   -8.690545    2.960966
   33          6             0       -4.010174  -10.025414    2.901472
   34          6             0       -4.544945  -10.877042    1.925855
   35          6             0       -5.445481  -10.370547    0.972172
   36          6             0       -5.832517   -9.016912    1.001288
   37          6             0       -1.612586  -10.033519    3.514641
   38          6             0       -0.618355  -10.155514    4.485082
   39          6             0       -0.916064  -10.690212    5.750204
   40          6             0       -2.212554  -11.191855    5.988120
   41          6             0       -3.209094  -11.074622    5.012795
   42          6             0       -2.920908  -10.459951    3.788733
   43          6             0       -0.365937  -10.028966    8.095508
   44          6             0        0.566501   -9.586875    9.036234
   45          6             0        1.945889   -9.637379    8.758991
   46          6             0        2.371586  -10.258428    7.570575
   47          6             0        1.435158  -10.700256    6.625218
   48          6             0        0.057132  -10.536071    6.853814
   49          6             0        2.735012   -8.792499   10.998870
   50          6             0        3.461514   -7.857400   11.745774
   51          6             0        4.365647   -6.985740   11.111378
   52          6             0        4.594949   -7.134466    9.732797
   53          6             0        3.872306   -8.065589    8.989748
   54          6             0        2.898355   -8.870197    9.603708
   55          6             0        4.111727   -5.034527   12.664549
   56          6             0        4.517133   -3.759120   13.071519
   57          6             0        5.744371   -3.232301   12.640454
   58          6             0        6.617618   -4.056956   11.909045
   59          6             0        6.216106   -5.332121   11.510336
   60          6             0        4.929124   -5.808479   11.826214
   61          6             0        5.006057   -0.854656   12.461686
   62          6             0        5.303363    0.497308   12.269429
   63          6             0        6.625456    0.959776   12.365771
   64          6             0        7.629109    0.054956   12.756863
   65          6             0        7.332162   -1.297492   12.950779
   66          6             0        6.021419   -1.779430   12.755326
   67          6             0        6.075076    3.385662   11.997672
   68          6             0        6.214136    4.541787   11.218997
   69          6             0        7.248265    4.642810   10.274271
   70          6             0        8.216201    3.627313   10.222160
   71          6             0        8.081506    2.474046   10.998963
   72          6             0        6.965952    2.309310   11.847303
   73          6             0        8.340410    6.212213    8.624726
   74          6             0        8.281008    6.907410    7.407776
   75          6             0        7.059098    7.035826    6.731633
   76          6             0        5.886536    6.562244    7.334817
   77          6             0        5.942359    5.885162    8.550083
   78          6             0        7.176613    5.648177    9.182152
   79          6             0        6.544037    6.584870    4.354962
   80          6             0        6.382074    6.989263    3.036346
   81          6             0        6.677255    8.309308    2.652007
   82          6             0        7.181958    9.202802    3.616598
   83          6             0        7.358198    8.785818    4.945230
   84          6             0        7.012033    7.480757    5.321861
   85          6             0        6.495773    7.890383    0.191059
   86          6             0        5.829053    8.111401   -1.012202
   87          6             0        4.967833    9.213830   -1.161307
   88          6             0        4.914340   10.166239   -0.122316
   89          6             0        5.576322    9.935999    1.090018
   90          6             0        6.310672    8.754157    1.281474
   91          6             0        4.252763    8.620578   -3.515170
   92          6             0        3.226244    8.364353   -4.431642
   93          6             0        1.907953    8.757000   -4.151045
   94          6             0        1.648316    9.473633   -2.975213
   95          6             0        2.662472    9.704463   -2.044226
   96          6             0        3.973870    9.238852   -2.279947
   97          6             0        0.650231    6.902979   -5.239430
   98          6             0       -0.486334    6.411096   -5.886809
   99          6             0       -1.497025    7.287227   -6.302977
  100          6             0       -1.353455    8.665095   -6.079753
  101          6             0       -0.226801    9.153284   -5.407566
  102          6             0        0.781523    8.277136   -4.980968
  103          6             0       -3.650935    6.024418   -6.268290
  104          6             0       -4.737407    5.441401   -6.927998
  105          6             0       -4.864716    5.559856   -8.327376
  106          6             0       -3.897991    6.304016   -9.034138
  107          6             0       -2.827656    6.902591   -8.365046
  108          6             0       -2.687022    6.749760   -6.982464
  109          6             0       -6.441372    5.342169  -10.257716
  110          6             0       -7.123596    4.526398  -11.156324
  111          6             0       -7.273254    3.139422  -10.908218
  112          6             0       -6.957445    2.687990   -9.603908
  113          6             0       -6.262394    3.511074   -8.709216
  114          6             0       -5.908412    4.815807   -9.077012
  115          6             0       -6.900944    0.848783  -11.890508
  116          6             0       -5.937678    0.359456  -12.774835
  117          6             0       -5.528723    1.156848  -13.863636
  118          6             0       -6.408079    2.168972  -14.283478
  119          6             0       -7.369973    2.653332  -13.387726
  120          6             0       -7.384553    2.165137  -12.061985
  121          1             0       -3.495563   -0.652053  -14.314406
  122          1             0       -1.744661   -0.662995  -12.644515
  123          1             0       -2.355220    3.557461  -11.975927
  124          1             0       -4.239166    3.513034  -13.492943
  125          1             0       -3.264323    2.708818  -10.009943
  126          1             0       -3.890523    1.629673   -7.973562
  127          1             0       -0.983815   -1.474433   -8.690979
  128          1             0       -0.343292   -0.395093  -10.783603
  129          1             0       -3.924072    0.646991   -5.916878
  130          1             0       -5.407952   -0.761332   -4.589888
  131          1             0       -4.289507   -4.180965   -6.981808
  132          1             0       -2.922687   -2.755164   -8.387705
  133          1             0       -5.323060   -2.433922   -2.986221
  134          1             0       -6.280994   -4.104841   -1.527004
  135          1             0       -7.427819   -6.474323   -4.950426
  136          1             0       -6.497594   -4.757670   -6.431392
  137          1             0       -8.229476   -5.484922   -0.720994
  138          1             0       -7.755710   -7.065051    1.083177
  139          1             0       -5.505849   -9.518569   -1.666138
  140          1             0       -6.013593   -7.967918   -3.464848
  141          1             0       -5.550098   -7.129816    2.047748
  142          1             0       -4.001018   -8.020460    3.700708
  143          1             0       -4.219335  -11.905022    1.859485
  144          1             0       -5.799782  -11.026655    0.188226
  145          1             0       -1.387466   -9.538035    2.580011
  146          1             0        0.355130   -9.736188    4.276979
  147          1             0       -2.469044  -11.610514    6.953754
  148          1             0       -4.218250  -11.395051    5.240347
  149          1             0       -1.416130   -9.879335    8.300891
  150          1             0        0.201408   -9.099217    9.934888
  151          1             0        3.425063  -10.333991    7.338150
  152          1             0        1.793213  -11.104373    5.688720
  153          1             0        2.007009   -9.415450   11.501607
  154          1             0        3.279278   -7.781898   12.809978
  155          1             0        5.263155   -6.466645    9.208024
  156          1             0        4.005987   -8.081408    7.914611
  157          1             0        3.113271   -5.368710   12.923131
  158          1             0        3.831356   -3.158095   13.657372
  159          1             0        7.567719   -3.680396   11.556040
  160          1             0        6.878715   -5.916641   10.882674
  161          1             0        3.989974   -1.187374   12.282860
  162          1             0        4.503524    1.151671   11.941637
  163          1             0        8.655788    0.387730   12.862787
  164          1             0        8.136807   -1.983451   13.190479
  165          1             0        5.223054    3.305287   12.662909
  166          1             0        5.463297    5.316343   11.298884
  167          1             0        9.022429    3.668329    9.498293
  168          1             0        8.783722    1.664824   10.846053
  169          1             0        9.304998    6.060852    9.095576
  170          1             0        9.197473    7.273782    6.956487
  171          1             0        4.936496    6.651748    6.823282
  172          1             0        5.027900    5.448402    8.934216
  173          1             0        6.273347    5.570380    4.633959
  174          1             0        5.970196    6.281498    2.328853
  175          1             0        7.417259   10.224854    3.346327
  176          1             0        7.727660    9.488438    5.681445
  177          1             0        7.086057    6.986057    0.303111
  178          1             0        5.910014    7.352822   -1.780803
  179          1             0        4.301446   11.054467   -0.214909
  180          1             0        5.423472   10.625319    1.907094
  181          1             0        5.252117    8.279977   -3.751652
  182          1             0        3.450990    7.821486   -5.339272
  183          1             0        0.635057    9.775486   -2.732179
  184          1             0        2.391284   10.158576   -1.102809
  185          1             0        1.405582    6.202776   -4.900601
  186          1             0       -0.582106    5.346483   -6.058090
  187          1             0       -2.126142    9.354315   -6.403401
  188          1             0       -0.146559   10.220002   -5.214608
  189          1             0       -3.550393    5.900134   -5.195941
  190          1             0       -5.470320    4.888594   -6.349388
  191          1             0       -3.929601    6.372270  -10.111826
  192          1             0       -2.084025    7.452454   -8.932904
  193          1             0       -6.256153    6.370296  -10.532976
  194          1             0       -7.406789    4.978758  -12.094871
  195          1             0       -7.131631    1.669288   -9.289945
  196          1             0       -5.914862    3.093691   -7.773678
  197          1             0       -6.987027    0.331161  -10.941684
  198          1             0       -5.278441   -0.407700  -12.395538
  199          1             0       -6.175108    2.738895  -15.171012
  200          1             0       -7.858800    3.585511  -13.648322
 --------------------------------------------------------------------
     1 basis functions        1 primitive gaussians
     1 alpha electrons        1 beta electrons
 
 Harmonic frequencies (cm**-1), IR intensities (km*mol⁻¹),
 Raman scattering activities (A**4/amu), Raman depolarization ratios,
 reduced masses (AMU), force constants (mDyne/A) and normal coordinates:
                      1                      2                      3
                        a                      a                      a 
 Frequencies --    11.0864                13.8427                17.4249
 Red. masses --    11.4161                11.4169                11.4068
 Frc consts  --     0.0000                 0.0000                 0.0000
 IR Inten    --     0.1059                 0.9519                 0.3060
 Raman Activ --     0.0000                 0.0000                 0.0000
 Depolar     --     0.0000                 0.0000                 0.0000
 Atom AN      X      Y      Z        X      Y      Z        X      Y      Z
   1   6    -0.01   0.03  -0.06     0.01   0.04   0.01     0.09  -0.01   0.10
   2   6    -0.01   0.05  -0.06    -0.00   0.04   0.02     0.09   0.02   0.10
   3   6    -0.02   0.05  -0.07    -0.01   0.04   0.02     0.07   0.03   0.09
   4   6    -0.04   0.04  -0.08    -0.00   0.04   0.02     0.04   0.02   0.07
   5   6    -0.04   0.03  -0.07     0.01   0.04   0.01     0.04  -0.01   0.07
   6   6    -0.03   0.02  -0.06     0.01   0.05  -0.00     0.07  -0.03   0.08
   7   6    -0.00   0.08  -0.07    -0.00   0.03   0.02     0.08   0.07   0.09
   8   6     0.01   0.08  -0.06     0.00   0.03   0.02     0.09   0.08   0.10
   9   6     0.01   0.09  -0.05     0.01   0.03   0.03     0.09   0.08   0.10
  10   6     0.01   0.08  -0.06     0.01   0.04   0.02     0.09   0.08   0.11
  11   6    -0.00   0.08  -0.06     0.00   0.04   0.02     0.08   0.06   0.10
  12   6    -0.01   0.07  -0.07    -0.00   0.03   0.02     0.08   0.06   0.09
  13   6     0.02   0.10  -0.05     0.03   0.03   0.04     0.08   0.09   0.10
  14   6     0.02   0.10  -0.04     0.04   0.03   0.05     0.07   0.09   0.09
  15   6     0.02   0.10  -0.03     0.05   0.03   0.05     0.06   0.10   0.09
  16   6     0.02   0.09  -0.03     0.04   0.03   0.05     0.06   0.09   0.09
  17   6     0.02   0.09  -0.04     0.03   0.03   0.04     0.08   0.09   0.10
  18   6     0.02   0.09  -0.05     0.02   0.03   0.03     0.08   0.09   0.10
  19   6     0.03   0.10  -0.03     0.07   0.02   0.06     0.03   0.09   0.08
  20   6     0.04   0.10  -0.02     0.07   0.02   0.06     0.02   0.09   0.06
  21   6     0.04   0.10  -0.02     0.07   0.02   0.07     0.01   0.09   0.05
  22   6     0.03   0.10  -0.02     0.07   0.02   0.07     0.02   0.10   0.05
  23   6     0.03   0.10  -0.02     0.06   0.02   0.06     0.04   0.11   0.06
  24   6     0.03   0.10  -0.03     0.06   0.02   0.06     0.04   0.10   0.08
  25   6     0.05   0.11  -0.01     0.08   0.02   0.07    -0.01   0.07   0.04
  26   6     0.05   0.11  -0.01     0.07   0.02   0.07    -0.02   0.06   0.03
  27   6     0.05   0.11  -0.01     0.07   0.01   0.07    -0.03   0.06   0.02
  28   6     0.05   0.11  -0.01     0.07   0.01   0.07    -0.02   0.07   0.02
  29   6     0.05   0.10  -0.01     0.08   0.02   0.07    -0.01   0.08   0.03
  30   6     0.04   0.10  -0.01     0.08   0.02   0.07    -0.00   0.09   0.04
  31   6     0.05   0.10  -0.01     0.06  -0.01   0.07    -0.02   0.02   0.02
  32   6     0.04   0.10  -0.01     0.05  -0.02   0.08    -0.02   0.01   0.01
  33   6     0.04   0.10  -0.01     0.04  -0.02   0.07    -0.03   0.01  -0.01
  34   6     0.04   0.10  -0.01     0.04  -0.01   0.07    -0.04   0.02  -0.01
  35   6     0.04   0.10  -0.01     0.05  -0.00   0.06    -0.04   0.04  -0.00
  36   6     0.05   0.10  -0.01     0.06   0.00   0.07    -0.03   0.04   0.01
  37   6     0.04   0.08   0.00     0.03  -0.04   0.08    -0.02  -0.02  -0.03
  38   6     0.03   0.07   0.01     0.03  -0.06   0.08    -0.02  -0.03  -0.04
  39   6     0.03   0.07   0.00     0.02  -0.06   0.08    -0.02  -0.04  -0.04
  40   6     0.02   0.07  -0.00     0.02  -0.05   0.07    -0.02  -0.03  -0.03
  41   6     0.03   0.08  -0.01     0.02  -0.04   0.07    -0.02  -0.02  -0.03
  42   6     0.03   0.09  -0.00     0.03  -0.03   0.08    -0.03  -0.01  -0.02
  43   6     0.02   0.05   0.01     0.02  -0.08   0.09    -0.01  -0.05  -0.04
  44   6     0.02   0.03   0.01     0.02  -0.08   0.09    -0.01  -0.05  -0.04
  45   6     0.02   0.03   0.02     0.02  -0.08   0.09    -0.01  -0.04  -0.05
  46   6     0.02   0.03   0.01     0.02  -0.08   0.09    -0.01  -0.05  -0.05
  47   6     0.02   0.05   0.01     0.02  -0.08   0.09    -0.01  -0.05  -0.05
  48   6     0.02   0.05   0.01     0.02  -0.07   0.08    -0.01  -0.05  -0.04
  49   6     0.02   0.01   0.03     0.02  -0.07   0.09    -0.00  -0.04  -0.05
  50   6     0.02  -0.00   0.03     0.01  -0.07   0.08    -0.01  -0.03  -0.06
  51   6     0.03  -0.00   0.04     0.01  -0.07   0.08    -0.01  -0.03  -0.07
  52   6     0.03   0.01   0.04     0.01  -0.07   0.08    -0.01  -0.03  -0.06
  53   6     0.03   0.02   0.03     0.01  -0.08   0.08    -0.01  -0.04  -0.06
  54   6     0.03   0.02   0.03     0.02  -0.08   0.09    -0.01  -0.04  -0.05
  55   6     0.03  -0.01   0.05     0.00  -0.05   0.06    -0.03  -0.02  -0.08
  56   6     0.03  -0.01   0.06    -0.01  -0.05   0.05    -0.03  -0.02  -0.08
  57   6     0.03  -0.01   0.06    -0.01  -0.04   0.04    -0.03  -0.01  -0.08
  58   6     0.03  -0.01   0.06    -0.01  -0.05   0.05    -0.03  -0.01  -0.08
  59   6     0.03  -0.01   0.06     0.00  -0.05   0.06    -0.02  -0.01  -0.07
  60   6     0.03  -0.01   0.05     0.00  -0.06   0.07    -0.02  -0.02  -0.07
  61   6     0.03  -0.01   0.07    -0.02  -0.05   0.01    -0.04  -0.01  -0.08
  62   6     0.02  -0.01   0.07    -0.03  -0.05  -0.01    -0.04  -0.01  -0.08
  63   6     0.02  -0.01   0.06    -0.03  -0.04  -0.02    -0.05  -0.01  -0.08
  64   6     0.02  -0.01   0.06    -0.03  -0.03  -0.01    -0.04  -0.01  -0.08
  65   6     0.03  -0.01   0.07    -0.02  -0.03   0.01    -0.04  -0.01  -0.08
  66   6     0.03  -0.01   0.07    -0.02  -0.04   0.02    -0.04  -0.01  -0.08
  67   6     0.02  -0.01   0.05    -0.05  -0.05  -0.04    -0.05  -0.01  -0.07
  68   6     0.01  -0.02   0.05    -0.05  -0.05  -0.05    -0.05  -0.00  -0.06
  69   6     0.01  -0.02   0.04    -0.05  -0.06  -0.05    -0.05   0.00  -0.06
  70   6     0.01  -0.02   0.05    -0.05  -0.05  -0.05    -0.05   0.00  -0.06
  71   6     0.02  -0.02   0.05    -0.04  -0.05  -0.04    -0.05  -0.00  -0.07
  72   6     0.02  -0.01   0.06    -0.04  -0.05  -0.03    -0.05  -0.01  -0.07
  73   6    -0.00  -0.04   0.02    -0.06  -0.06  -0.06    -0.04   0.01  -0.04
  74   6    -0.01  -0.05   0.02    -0.06  -0.06  -0.06    -0.04   0.02  -0.04
  75   6    -0.01  -0.06   0.02    -0.06  -0.06  -0.06    -0.03   0.02  -0.04
  76   6    -0.01  -0.05   0.03    -0.06  -0.06  -0.06    -0.04   0.02  -0.05
  77   6    -0.00  -0.04   0.03    -0.06  -0.06  -0.06    -0.04   0.02  -0.05
  78   6     0.00  -0.03   0.03    -0.06  -0.06  -0.06    -0.04   0.01  -0.05
  79   6    -0.02  -0.07   0.02    -0.06  -0.04  -0.06    -0.02   0.03  -0.04
  80   6    -0.03  -0.08   0.02    -0.05  -0.03  -0.06    -0.01   0.03  -0.04
  81   6    -0.03  -0.08   0.01    -0.05  -0.03  -0.05    -0.01   0.03  -0.04
  82   6    -0.03  -0.08   0.01    -0.05  -0.04  -0.04    -0.02   0.03  -0.04
  83   6    -0.02  -0.07   0.01    -0.05  -0.05  -0.05    -0.02   0.03  -0.04
  84   6    -0.02  -0.07   0.02    -0.06  -0.05  -0.05    -0.03   0.03  -0.04
  85   6    -0.04  -0.10   0.02    -0.04  -0.01  -0.05     0.00   0.03  -0.04
  86   6    -0.04  -0.10   0.02    -0.03  -0.00  -0.06     0.00   0.03  -0.04
  87   6    -0.04  -0.10   0.01    -0.03   0.00  -0.05    -0.00   0.03  -0.04
  88   6    -0.04  -0.10   0.01    -0.03  -0.00  -0.05    -0.00   0.03  -0.04
  89   6    -0.04  -0.09   0.01    -0.04  -0.02  -0.04    -0.00   0.03  -0.04
  90   6    -0.04  -0.09   0.01    -0.04  -0.02  -0.05    -0.00   0.03  -0.04
  91   6    -0.04  -0.11   0.02    -0.02   0.03  -0.06    -0.01   0.01  -0.04
  92   6    -0.04  -0.11   0.02    -0.01   0.04  -0.07    -0.01  -0.00  -0.03
  93   6    -0.04  -0.11   0.01    -0.01   0.05  -0.08    -0.01  -0.01  -0.02
  94   6    -0.04  -0.11   0.01    -0.01   0.04  -0.07    -0.01  -0.00  -0.03
  95   6    -0.05  -0.11   0.01    -0.02   0.03  -0.06    -0.01   0.01  -0.03
  96   6    -0.04  -0.11   0.02    -0.02   0.02  -0.06    -0.00   0.02  -0.04
  97   6    -0.04  -0.11   0.01    -0.02   0.06  -0.09    -0.01  -0.03   0.01
  98   6    -0.04  -0.10   0.00    -0.02   0.07  -0.09    -0.01  -0.05   0.02
  99   6    -0.04  -0.10   0.00    -0.01   0.07  -0.09    -0.02  -0.06   0.02
 100   6    -0.04  -0.10   0.00    -0.01   0.07  -0.09    -0.03  -0.05   0.01
 101   6    -0.04  -0.11   0.01    -0.00   0.06  -0.08    -0.02  -0.04  -0.00
 102   6    -0.04  -0.11   0.01    -0.01   0.06  -0.08    -0.01  -0.03  -0.01
 103   6    -0.04  -0.09  -0.01    -0.02   0.08  -0.09    -0.01  -0.07   0.04
 104   6    -0.05  -0.09  -0.01    -0.02   0.08  -0.09    -0.01  -0.08   0.04
 105   6    -0.04  -0.08  -0.01    -0.02   0.08  -0.09    -0.01  -0.09   0.04
 106   6    -0.04  -0.08  -0.01    -0.02   0.08  -0.09    -0.02  -0.09   0.04
 107   6    -0.04  -0.09  -0.00    -0.02   0.08  -0.09    -0.02  -0.08   0.03
 108   6    -0.04  -0.10  -0.00    -0.02   0.08  -0.09    -0.02  -0.07   0.03
 109   6    -0.04  -0.06  -0.02    -0.02   0.08  -0.08    -0.01  -0.10   0.05
 110   6    -0.04  -0.05  -0.03    -0.02   0.07  -0.08    -0.00  -0.10   0.05
 111   6    -0.04  -0.05  -0.04    -0.02   0.07  -0.07     0.01  -0.10   0.05
 112   6    -0.05  -0.06  -0.04    -0.02   0.08  -0.07     0.00  -0.10   0.05
 113   6    -0.05  -0.07  -0.03    -0.02   0.08  -0.08    -0.01  -0.09   0.05
 114   6    -0.05  -0.07  -0.02    -0.02   0.08  -0.08    -0.01  -0.09   0.05
 115   6    -0.02  -0.04  -0.05    -0.02   0.06  -0.05     0.05  -0.09   0.05
 116   6    -0.01  -0.02  -0.06    -0.01   0.06  -0.04     0.08  -0.07   0.06
 117   6    -0.03  -0.00  -0.05     0.01   0.05  -0.03     0.07  -0.06   0.07
 118   6    -0.04  -0.02  -0.05     0.02   0.05  -0.05     0.05  -0.08   0.06
 119   6    -0.05  -0.03  -0.04     0.01   0.06  -0.07     0.04  -0.10   0.05
 120   6    -0.04  -0.04  -0.04    -0.01   0.07  -0.07     0.03  -0.10   0.04
 121   1    -0.00   0.01  -0.01     0.00   0.01   0.00     0.03  -0.01   0.03
 122   1     0.00   0.02  -0.02    -0.00   0.01   0.01     0.03   0.01   0.03
 123   1    -0.01   0.01  -0.02    -0.00   0.01   0.01     0.01   0.01   0.02
 124   1    -0.02   0.01  -0.02     0.00   0.01   0.00     0.01  -0.01   0.02
 125   1    -0.00   0.02  -0.02    -0.00   0.01   0.01     0.02   0.02   0.02
 126   1     0.00   0.03  -0.02     0.00   0.01   0.01     0.03   0.02   0.03
 127   1     0.00   0.03  -0.02     0.00   0.01   0.01     0.03   0.02   0.03
 128   1    -0.00   0.02  -0.02     0.00   0.01   0.00     0.02   0.02   0.03
 129   1     0.01   0.03  -0.01     0.01   0.01   0.01     0.02   0.03   0.03
 130   1     0.01   0.03  -0.01     0.01   0.01   0.02     0.02   0.03   0.03
 131   1     0.01   0.03  -0.01     0.01   0.01   0.01     0.02   0.03   0.03
 132   1     0.00   0.03  -0.01     0.01   0.01   0.01     0.02   0.02   0.03
 133   1     0.01   0.03  -0.01     0.02   0.01   0.02     0.01   0.02   0.02
 134   1     0.01   0.03  -0.01     0.02   0.01   0.02     0.00   0.02   0.02
 135   1     0.01   0.03  -0.00     0.02   0.00   0.02     0.01   0.03   0.01
 136   1     0.01   0.03  -0.01     0.02   0.01   0.02     0.01   0.03   0.02
 137   1     0.01   0.03  -0.00     0.02   0.01   0.02     0.00   0.02   0.01
 138   1     0.01   0.03  -0.00     0.02   0.00   0.02    -0.01   0.01   0.01
 139   1     0.01   0.03  -0.00     0.02   0.00   0.02    -0.01   0.02   0.00
 140   1     0.01   0.03  -0.00     0.02   0.01   0.02    -0.00   0.03   0.01
 141   1     0.01   0.03  -0.00     0.02  -0.00   0.02    -0.00   0.01   0.01
 142   1     0.01   0.03  -0.00     0.01  -0.01   0.02    -0.00   0.00   0.00
 143   1     0.01   0.03  -0.00     0.01  -0.00   0.02    -0.01   0.01  -0.01
 144   1     0.01   0.03  -0.00     0.01   0.00   0.02    -0.01   0.01  -0.00
 145   1     0.01   0.03   0.00     0.01  -0.01   0.03    -0.01  -0.00  -0.01
 146   1     0.01   0.02   0.00     0.01  -0.02   0.03    -0.01  -0.01  -0.01
 147   1     0.01   0.02  -0.00     0.00  -0.02   0.02    -0.00  -0.01  -0.01
 148   1     0.01   0.03  -0.00     0.01  -0.01   0.02    -0.01  -0.00  -0.01
 149   1     0.01   0.02   0.00     0.01  -0.02   0.02    -0.00  -0.01  -0.01
 150   1     0.01   0.01   0.01     0.01  -0.02   0.03    -0.00  -0.01  -0.01
 151   1     0.01   0.01   0.01     0.01  -0.02   0.03    -0.00  -0.01  -0.02
 152   1     0.01   0.01   0.00     0.01  -0.02   0.03    -0.00  -0.01  -0.01
 153   1     0.01   0.00   0.01     0.01  -0.02   0.03    -0.00  -0.01  -0.01
 154   1     0.01  -0.00   0.01     0.00  -0.02   0.02    -0.00  -0.01  -0.02
 155   1     0.01   0.00   0.01     0.00  -0.02   0.02    -0.01  -0.01  -0.02
 156   1     0.01   0.01   0.01     0.00  -0.02   0.02    -0.00  -0.01  -0.02
 157   1     0.01  -0.00   0.01     0.00  -0.02   0.02    -0.01  -0.01  -0.02
 158   1     0.01  -0.00   0.02    -0.00  -0.01   0.01    -0.01  -0.01  -0.02
 159   1     0.01  -0.00   0.02    -0.00  -0.01   0.01    -0.01  -0.00  -0.02
 160   1     0.01  -0.00   0.02     0.00  -0.02   0.02    -0.01  -0.00  -0.02
 161   1     0.01  -0.00   0.02    -0.01  -0.02   0.00    -0.01  -0.00  -0.02
 162   1     0.01  -0.00   0.02    -0.01  -0.02  -0.00    -0.01  -0.00  -0.02
 163   1     0.01  -0.00   0.02    -0.01  -0.01  -0.00    -0.01  -0.00  -0.02
 164   1     0.01  -0.00   0.02    -0.01  -0.01   0.00    -0.01  -0.00  -0.02
 165   1     0.01  -0.00   0.02    -0.01  -0.01  -0.01    -0.01  -0.00  -0.02
 166   1     0.00  -0.01   0.01    -0.02  -0.02  -0.02    -0.01  -0.00  -0.02
 167   1     0.00  -0.01   0.01    -0.02  -0.02  -0.01    -0.01   0.00  -0.02
 168   1     0.01  -0.00   0.02    -0.01  -0.01  -0.01    -0.01  -0.00  -0.02
 169   1    -0.00  -0.01   0.01    -0.02  -0.02  -0.02    -0.01   0.00  -0.01
 170   1    -0.00  -0.01   0.00    -0.02  -0.02  -0.02    -0.01   0.01  -0.01
 171   1    -0.00  -0.02   0.01    -0.02  -0.02  -0.02    -0.01   0.01  -0.01
 172   1     0.00  -0.01   0.01    -0.02  -0.02  -0.02    -0.01   0.00  -0.02
 173   1    -0.00  -0.02   0.01    -0.02  -0.01  -0.02    -0.01   0.01  -0.01
 174   1    -0.01  -0.02   0.01    -0.02  -0.01  -0.02    -0.00   0.01  -0.01
 175   1    -0.01  -0.02   0.00    -0.01  -0.01  -0.01    -0.00   0.01  -0.01
 176   1    -0.01  -0.02   0.00    -0.02  -0.01  -0.01    -0.01   0.01  -0.01
 177   1    -0.01  -0.03   0.01    -0.01  -0.01  -0.02     0.00   0.01  -0.01
 178   1    -0.01  -0.03   0.01    -0.01   0.00  -0.02     0.00   0.01  -0.01
 179   1    -0.01  -0.03   0.00    -0.01   0.00  -0.01    -0.00   0.01  -0.01
 180   1    -0.01  -0.03   0.00    -0.01  -0.01  -0.01    -0.00   0.01  -0.01
 181   1    -0.01  -0.03   0.00    -0.00   0.01  -0.02    -0.00   0.00  -0.01
 182   1    -0.01  -0.03   0.00    -0.00   0.01  -0.02    -0.00  -0.00  -0.01
 183   1    -0.01  -0.03   0.00    -0.00   0.01  -0.02    -0.00  -0.00  -0.01
 184   1    -0.01  -0.03   0.00    -0.01   0.01  -0.02    -0.00   0.00  -0.01
 185   1    -0.01  -0.03   0.00    -0.01   0.02  -0.03     0.00  -0.01   0.00
 186   1    -0.01  -0.03   0.00    -0.01   0.02  -0.03    -0.00  -0.01   0.01
 187   1    -0.01  -0.03   0.00    -0.00   0.02  -0.02    -0.01  -0.02   0.00
 188   1    -0.01  -0.03   0.00    -0.00   0.02  -0.02    -0.01  -0.01  -0.00
 189   1    -0.01  -0.03  -0.00    -0.00   0.02  -0.03    -0.00  -0.02   0.01
 190   1    -0.01  -0.02  -0.01    -0.01   0.03  -0.02    -0.00  -0.02   0.01
 191   1    -0.01  -0.02  -0.00    -0.01   0.02  -0.03    -0.01  -0.03   0.01
 192   1    -0.01  -0.03  -0.00    -0.01   0.02  -0.03    -0.01  -0.02   0.01
 193   1    -0.01  -0.02  -0.00    -0.01   0.02  -0.02    -0.00  -0.03   0.01
 194   1    -0.01  -0.01  -0.01    -0.01   0.02  -0.02    -0.00  -0.03   0.01
 195   1    -0.02  -0.02  -0.01    -0.00   0.02  -0.02     0.00  -0.03   0.01
 196   1    -0.02  -0.02  -0.01    -0.00   0.02  -0.02    -0.00  -0.03   0.02
 197   1    -0.00  -0.01  -0.02    -0.01   0.02  -0.02     0.02  -0.03   0.01
 198   1    -0.00  -0.00  -0.02    -0.01   0.02  -0.01     0.03  -0.02   0.02
 199   1    -0.02  -0.00  -0.01     0.01   0.01  -0.01     0.02  -0.02   0.02
 200   1    -0.02  -0.01  -0.01     0.00   0.02  -0.02     0.01  -0.03   0.01
                      4                      5                      6
                        a                      a                      a 
 Frequencies --    20.9122                23.2083                26.7215
 Red. masses --    11.4027                11.3993                11.3887
 Frc consts  --     0.0000                 0.0000                 0.0000
 IR Inten    --     0.7582                 1.3761                 0.5197
 Raman Activ --     0.0000                 0.0000                 0.0000
 Depolar     --     0.0000                 0.0000                 0.0000
 Atom AN      X      Y      Z        X      Y      Z        X      Y      Z
   1   6     0.08  -0.08  -0.03    -0.03   0.01  -0.05    -0.07  -0.04  -0.08
   2   6     0.07  -0.08  -0.02    -0.01   0.01  -0.08    -0.06  -0.03  -0.10
   3   6     0.07  -0.08  -0.02     0.01   0.01  -0.08    -0.06  -0.03  -0.10
   4   6     0.08  -0.08  -0.03    -0.00   0.01  -0.07    -0.05  -0.03  -0.10
   5   6     0.09  -0.07  -0.04    -0.02   0.01  -0.04    -0.07  -0.03  -0.09
   6   6     0.09  -0.07  -0.04    -0.04   0.01  -0.03    -0.08  -0.04  -0.07
   7   6     0.06  -0.07  -0.02     0.04   0.01  -0.07    -0.06  -0.02  -0.10
   8   6     0.05  -0.06  -0.02     0.06   0.00  -0.07    -0.06  -0.02  -0.10
   9   6     0.04  -0.06  -0.01     0.07   0.00  -0.08    -0.07  -0.02  -0.09
  10   6     0.04  -0.07  -0.00     0.07   0.01  -0.09    -0.07  -0.03  -0.09
  11   6     0.05  -0.08  -0.01     0.05   0.02  -0.10    -0.07  -0.03  -0.09
  12   6     0.06  -0.08  -0.02     0.04   0.01  -0.09    -0.06  -0.03  -0.10
  13   6     0.03  -0.03  -0.01     0.09  -0.01  -0.07    -0.06   0.01  -0.08
  14   6     0.02  -0.01  -0.01     0.10  -0.02  -0.07    -0.06   0.02  -0.07
  15   6     0.00  -0.01  -0.00     0.11  -0.02  -0.07    -0.06   0.02  -0.05
  16   6     0.00  -0.03   0.01     0.11  -0.01  -0.07    -0.07   0.01  -0.05
  17   6     0.01  -0.04   0.00     0.10  -0.01  -0.08    -0.08  -0.00  -0.07
  18   6     0.03  -0.04  -0.01     0.09  -0.00  -0.08    -0.07  -0.00  -0.08
  19   6    -0.02   0.02   0.00     0.12  -0.02  -0.06    -0.04   0.05  -0.03
  20   6    -0.04   0.03   0.01     0.12  -0.02  -0.06    -0.02   0.06  -0.01
  21   6    -0.05   0.03   0.01     0.11  -0.02  -0.06    -0.02   0.05   0.01
  22   6    -0.04   0.02   0.01     0.12  -0.02  -0.06    -0.04   0.03   0.01
  23   6    -0.02   0.01   0.01     0.12  -0.02  -0.06    -0.06   0.02  -0.01
  24   6    -0.01   0.00   0.00     0.12  -0.02  -0.06    -0.05   0.03  -0.03
  25   6    -0.06   0.05   0.02     0.08   0.00  -0.06     0.02   0.07   0.03
  26   6    -0.07   0.06   0.03     0.06   0.00  -0.06     0.03   0.08   0.04
  27   6    -0.07   0.06   0.04     0.05  -0.01  -0.04     0.03   0.08   0.04
  28   6    -0.07   0.04   0.04     0.07  -0.01  -0.03     0.02   0.07   0.04
  29   6    -0.06   0.04   0.03     0.09  -0.02  -0.04     0.01   0.06   0.03
  30   6    -0.06   0.04   0.02     0.10  -0.01  -0.05     0.00   0.06   0.03
  31   6    -0.07   0.06   0.04     0.01  -0.01  -0.01     0.04   0.07   0.04
  32   6    -0.07   0.07   0.04    -0.02  -0.01   0.01     0.04   0.07   0.04
  33   6    -0.07   0.07   0.04    -0.03  -0.02   0.02     0.03   0.06   0.04
  34   6    -0.07   0.06   0.04    -0.01  -0.02   0.01     0.02   0.07   0.04
  35   6    -0.07   0.06   0.05     0.01  -0.01  -0.01     0.02   0.08   0.04
  36   6    -0.07   0.06   0.04     0.02  -0.01  -0.02     0.03   0.08   0.04
  37   6    -0.06   0.07   0.02    -0.05  -0.03   0.06     0.03   0.03   0.04
  38   6    -0.05   0.06   0.01    -0.06  -0.02   0.07     0.03   0.00   0.04
  39   6    -0.04   0.05   0.01    -0.08  -0.02   0.07     0.02  -0.02   0.03
  40   6    -0.04   0.06   0.02    -0.08  -0.01   0.06     0.01  -0.00   0.02
  41   6    -0.05   0.06   0.03    -0.07  -0.01   0.05     0.02   0.03   0.03
  42   6    -0.06   0.07   0.03    -0.05  -0.02   0.05     0.02   0.04   0.03
  43   6    -0.01   0.03   0.01    -0.09  -0.02   0.08     0.03  -0.06   0.04
  44   6     0.00   0.02   0.00    -0.09  -0.02   0.08     0.04  -0.08   0.04
  45   6    -0.00   0.01  -0.01    -0.09  -0.02   0.08     0.04  -0.09   0.04
  46   6    -0.02   0.01  -0.02    -0.08  -0.02   0.08     0.03  -0.08   0.03
  47   6    -0.03   0.02  -0.01    -0.08  -0.03   0.08     0.02  -0.06   0.03
  48   6    -0.03   0.04   0.00    -0.08  -0.02   0.08     0.03  -0.05   0.03
  49   6     0.03  -0.02  -0.01    -0.08   0.00   0.07     0.04  -0.09   0.03
  50   6     0.05  -0.03  -0.01    -0.07   0.00   0.06     0.04  -0.08   0.03
  51   6     0.05  -0.04  -0.01    -0.07  -0.01   0.05     0.04  -0.08   0.03
  52   6     0.04  -0.04  -0.02    -0.08  -0.02   0.05     0.04  -0.09   0.03
  53   6     0.02  -0.02  -0.02    -0.09  -0.02   0.06     0.04  -0.09   0.03
  54   6     0.02  -0.01  -0.01    -0.09  -0.01   0.07     0.04  -0.09   0.03
  55   6     0.08  -0.05  -0.01    -0.04   0.01   0.03     0.02  -0.07   0.00
  56   6     0.09  -0.05  -0.01    -0.03   0.02   0.02     0.00  -0.06  -0.01
  57   6     0.09  -0.06  -0.02    -0.03  -0.00   0.00    -0.01  -0.05  -0.02
  58   6     0.08  -0.06  -0.02    -0.04  -0.02   0.01     0.00  -0.05  -0.01
  59   6     0.07  -0.06  -0.02    -0.05  -0.02   0.03     0.02  -0.06   0.01
  60   6     0.07  -0.05  -0.01    -0.05  -0.00   0.04     0.02  -0.07   0.01
  61   6     0.09  -0.06  -0.02    -0.00   0.00  -0.03    -0.03  -0.06  -0.04
  62   6     0.09  -0.06  -0.02     0.01  -0.00  -0.05    -0.05  -0.05  -0.05
  63   6     0.09  -0.06  -0.02     0.02  -0.01  -0.05    -0.05  -0.04  -0.05
  64   6     0.09  -0.06  -0.02     0.01  -0.02  -0.05    -0.04  -0.03  -0.05
  65   6     0.10  -0.06  -0.02    -0.01  -0.01  -0.03    -0.03  -0.03  -0.04
  66   6     0.09  -0.06  -0.02    -0.01  -0.00  -0.02    -0.02  -0.04  -0.04
  67   6     0.08  -0.06  -0.00     0.04  -0.01  -0.07    -0.07  -0.04  -0.04
  68   6     0.07  -0.05   0.00     0.05  -0.01  -0.07    -0.07  -0.03  -0.02
  69   6     0.07  -0.04  -0.01     0.05  -0.02  -0.06    -0.07  -0.01  -0.02
  70   6     0.07  -0.04  -0.02     0.04  -0.03  -0.06    -0.07  -0.01  -0.03
  71   6     0.08  -0.04  -0.02     0.03  -0.03  -0.06    -0.07  -0.02  -0.04
  72   6     0.09  -0.05  -0.01     0.03  -0.02  -0.06    -0.06  -0.03  -0.04
  73   6     0.04  -0.03  -0.01     0.06  -0.02  -0.05    -0.07   0.02   0.01
  74   6     0.02  -0.01   0.00     0.07  -0.01  -0.05    -0.06   0.04   0.03
  75   6     0.01  -0.01   0.02     0.07   0.00  -0.05    -0.06   0.05   0.02
  76   6     0.02  -0.02   0.03     0.07   0.00  -0.06    -0.06   0.05   0.01
  77   6     0.04  -0.04   0.02     0.06  -0.01  -0.06    -0.07   0.02  -0.00
  78   6     0.05  -0.04   0.00     0.06  -0.02  -0.06    -0.07   0.01  -0.00
  79   6    -0.03   0.02   0.02     0.06   0.02  -0.05    -0.04   0.08   0.02
  80   6    -0.06   0.03   0.03     0.05   0.03  -0.04    -0.02   0.09   0.02
  81   6    -0.07   0.04   0.04     0.05   0.04  -0.04    -0.01   0.09   0.03
  82   6    -0.06   0.03   0.04     0.05   0.03  -0.03    -0.02   0.09   0.04
  83   6    -0.03   0.02   0.03     0.06   0.02  -0.04    -0.04   0.08   0.04
  84   6    -0.02   0.01   0.03     0.07   0.02  -0.05    -0.04   0.07   0.03
  85   6    -0.10   0.05   0.04     0.02   0.05  -0.03     0.04   0.10   0.03
  86   6    -0.10   0.06   0.05    -0.00   0.05  -0.02     0.05   0.10   0.02
  87   6    -0.10   0.06   0.06    -0.01   0.05  -0.01     0.05   0.10   0.01
  88   6    -0.10   0.05   0.06     0.01   0.05  -0.00     0.04   0.10   0.01
  89   6    -0.09   0.04   0.06     0.02   0.05  -0.01     0.02   0.10   0.02
  90   6    -0.09   0.04   0.05     0.03   0.05  -0.03     0.02   0.10   0.03
  91   6    -0.10   0.07   0.05    -0.04   0.04   0.01     0.06   0.08   0.01
  92   6    -0.09   0.08   0.05    -0.06   0.04   0.02     0.07   0.06   0.01
  93   6    -0.10   0.08   0.05    -0.05   0.04   0.05     0.06   0.04   0.01
  94   6    -0.10   0.07   0.05    -0.04   0.04   0.05     0.05   0.06  -0.00
  95   6    -0.10   0.07   0.05    -0.02   0.05   0.03     0.05   0.08  -0.00
  96   6    -0.10   0.07   0.06    -0.03   0.05   0.01     0.06   0.09   0.00
  97   6    -0.08   0.07   0.03    -0.07   0.02   0.08     0.09   0.01   0.02
  98   6    -0.07   0.07   0.01    -0.07   0.02   0.09     0.09  -0.01   0.03
  99   6    -0.06   0.07   0.00    -0.08   0.01   0.10     0.08  -0.02   0.02
 100   6    -0.08   0.07   0.01    -0.08   0.01   0.09     0.06  -0.02   0.01
 101   6    -0.09   0.07   0.02    -0.08   0.02   0.08     0.06   0.00   0.00
 102   6    -0.09   0.07   0.04    -0.07   0.03   0.07     0.07   0.02   0.01
 103   6    -0.05   0.04  -0.03    -0.07  -0.00   0.09     0.10  -0.05   0.03
 104   6    -0.03   0.02  -0.05    -0.07  -0.01   0.09     0.10  -0.06   0.03
 105   6    -0.01   0.01  -0.05    -0.06  -0.01   0.09     0.09  -0.06   0.03
 106   6    -0.01   0.03  -0.04    -0.06  -0.01   0.09     0.09  -0.07   0.03
 107   6    -0.03   0.05  -0.02    -0.07   0.00   0.10     0.09  -0.06   0.02
 108   6    -0.05   0.05  -0.02    -0.08   0.01   0.10     0.09  -0.05   0.02
 109   6     0.03  -0.02  -0.07    -0.05  -0.02   0.08     0.08  -0.05   0.04
 110   6     0.05  -0.03  -0.08    -0.03  -0.02   0.07     0.06  -0.04   0.05
 111   6     0.06  -0.04  -0.07    -0.02  -0.02   0.06     0.04  -0.04   0.05
 112   6     0.06  -0.03  -0.07    -0.03  -0.03   0.06     0.04  -0.04   0.05
 113   6     0.04  -0.01  -0.07    -0.04  -0.03   0.07     0.06  -0.05   0.04
 114   6     0.02  -0.01  -0.06    -0.05  -0.02   0.08     0.08  -0.06   0.04
 115   6     0.07  -0.04  -0.06     0.00  -0.01   0.04    -0.00  -0.04   0.03
 116   6     0.07  -0.05  -0.05    -0.01   0.00   0.02    -0.04  -0.04  -0.01
 117   6     0.09  -0.06  -0.05    -0.03   0.01   0.02    -0.07  -0.04  -0.02
 118   6     0.10  -0.06  -0.06    -0.05   0.01   0.04    -0.08  -0.03   0.01
 119   6     0.09  -0.05  -0.07    -0.04  -0.01   0.06    -0.05  -0.03   0.05
 120   6     0.08  -0.04  -0.07    -0.01  -0.01   0.05    -0.00  -0.03   0.05
 121   1     0.02  -0.02  -0.01    -0.01   0.00  -0.01    -0.02  -0.01  -0.02
 122   1     0.02  -0.02  -0.00     0.00   0.00  -0.03    -0.02  -0.01  -0.03
 123   1     0.02  -0.02  -0.01     0.00   0.00  -0.02    -0.01  -0.01  -0.03
 124   1     0.03  -0.02  -0.01    -0.01   0.00  -0.01    -0.02  -0.01  -0.02
 125   1     0.02  -0.02  -0.01     0.01   0.00  -0.02    -0.02  -0.01  -0.03
 126   1     0.01  -0.01  -0.01     0.02  -0.00  -0.02    -0.02  -0.00  -0.03
 127   1     0.01  -0.02   0.00     0.02   0.00  -0.03    -0.02  -0.01  -0.02
 128   1     0.01  -0.03   0.00     0.01   0.01  -0.03    -0.02  -0.01  -0.03
 129   1     0.01  -0.01  -0.01     0.03  -0.00  -0.02    -0.02   0.00  -0.03
 130   1     0.01  -0.00  -0.00     0.03  -0.01  -0.02    -0.02   0.01  -0.02
 131   1    -0.00  -0.01   0.00     0.03  -0.00  -0.02    -0.02   0.00  -0.01
 132   1     0.00  -0.02   0.00     0.03  -0.00  -0.02    -0.02  -0.00  -0.02
 133   1    -0.00   0.00  -0.00     0.03  -0.01  -0.02    -0.01   0.02  -0.01
 134   1    -0.01   0.01   0.00     0.03  -0.00  -0.02    -0.00   0.02  -0.00
 135   1    -0.01   0.01   0.01     0.03  -0.01  -0.02    -0.01   0.01   0.01
 136   1    -0.01  -0.00   0.00     0.04  -0.01  -0.02    -0.02   0.00  -0.00
 137   1    -0.02   0.02   0.00     0.02   0.00  -0.02     0.00   0.02   0.01
 138   1    -0.02   0.02   0.01     0.01   0.00  -0.02     0.01   0.03   0.01
 139   1    -0.02   0.01   0.01     0.02  -0.01  -0.01     0.01   0.02   0.01
 140   1    -0.02   0.01   0.01     0.03  -0.01  -0.01    -0.00   0.02   0.01
 141   1    -0.02   0.02   0.01     0.01  -0.00  -0.01     0.01   0.02   0.01
 142   1    -0.02   0.02   0.01    -0.01  -0.00   0.00     0.01   0.02   0.01
 143   1    -0.02   0.02   0.01    -0.01  -0.01   0.01     0.00   0.02   0.01
 144   1    -0.02   0.02   0.01     0.01  -0.00  -0.00     0.01   0.02   0.01
 145   1    -0.02   0.02   0.01    -0.01  -0.01   0.02     0.01   0.01   0.01
 146   1    -0.02   0.02   0.00    -0.02  -0.01   0.02     0.01  -0.00   0.01
 147   1    -0.01   0.02   0.01    -0.03  -0.00   0.02     0.00  -0.00   0.00
 148   1    -0.01   0.02   0.01    -0.02  -0.00   0.01     0.00   0.01   0.01
 149   1    -0.00   0.01   0.01    -0.02  -0.00   0.02     0.01  -0.01   0.01
 150   1     0.00   0.00   0.00    -0.03  -0.00   0.02     0.01  -0.02   0.01
 151   1    -0.01  -0.00  -0.01    -0.02  -0.01   0.03     0.01  -0.03   0.01
 152   1    -0.01   0.01  -0.00    -0.02  -0.01   0.03     0.01  -0.02   0.01
 153   1     0.01  -0.00  -0.00    -0.02   0.00   0.02     0.01  -0.03   0.01
 154   1     0.02  -0.01  -0.00    -0.02   0.00   0.02     0.01  -0.02   0.01
 155   1     0.01  -0.01  -0.01    -0.02  -0.01   0.01     0.01  -0.03   0.01
 156   1     0.00  -0.01  -0.00    -0.03  -0.01   0.02     0.01  -0.03   0.01
 157   1     0.02  -0.01  -0.00    -0.01   0.01   0.01     0.01  -0.02   0.00
 158   1     0.03  -0.01  -0.00    -0.01   0.01   0.00    -0.00  -0.02  -0.01
 159   1     0.02  -0.02  -0.01    -0.01  -0.01  -0.00    -0.00  -0.01  -0.00
 160   1     0.02  -0.02  -0.01    -0.02  -0.01   0.01     0.01  -0.02   0.00
 161   1     0.03  -0.02  -0.00    -0.00   0.00  -0.01    -0.01  -0.02  -0.01
 162   1     0.03  -0.02  -0.00     0.00   0.00  -0.02    -0.02  -0.02  -0.01
 163   1     0.03  -0.02  -0.01     0.00  -0.01  -0.02    -0.01  -0.01  -0.01
 164   1     0.03  -0.02  -0.01    -0.00  -0.00  -0.01    -0.01  -0.01  -0.01
 165   1     0.03  -0.02   0.00     0.01  -0.00  -0.02    -0.02  -0.01  -0.01
 166   1     0.02  -0.02   0.00     0.02  -0.00  -0.02    -0.02  -0.01  -0.00
 167   1     0.02  -0.01  -0.01     0.01  -0.01  -0.02    -0.02  -0.00  -0.01
 168   1     0.02  -0.01  -0.01     0.01  -0.01  -0.02    -0.02  -0.00  -0.02
 169   1     0.01  -0.01  -0.01     0.02  -0.01  -0.02    -0.02   0.00   0.00
 170   1     0.00  -0.00  -0.00     0.02  -0.00  -0.01    -0.02   0.01   0.01
 171   1     0.00  -0.01   0.01     0.02   0.00  -0.02    -0.02   0.02   0.00
 172   1     0.01  -0.01   0.01     0.02  -0.00  -0.02    -0.02   0.00  -0.00
 173   1    -0.01   0.00   0.01     0.02   0.01  -0.02    -0.01   0.02   0.00
 174   1    -0.02   0.01   0.01     0.01   0.01  -0.01    -0.00   0.03   0.00
 175   1    -0.02   0.01   0.01     0.01   0.01  -0.01    -0.00   0.03   0.02
 176   1    -0.01   0.00   0.01     0.02   0.00  -0.01    -0.01   0.02   0.02
 177   1    -0.03   0.01   0.01     0.01   0.02  -0.01     0.01   0.03   0.01
 178   1    -0.03   0.02   0.01    -0.00   0.02  -0.01     0.02   0.03   0.01
 179   1    -0.03   0.01   0.02     0.00   0.01   0.00     0.01   0.03   0.00
 180   1    -0.03   0.01   0.02     0.01   0.01  -0.00     0.00   0.03   0.00
 181   1    -0.03   0.02   0.02    -0.01   0.01  -0.00     0.02   0.03   0.00
 182   1    -0.03   0.02   0.01    -0.02   0.01   0.01     0.02   0.02   0.00
 183   1    -0.03   0.02   0.01    -0.01   0.01   0.02     0.01   0.01  -0.00
 184   1    -0.03   0.02   0.02    -0.00   0.01   0.01     0.01   0.02  -0.00
 185   1    -0.02   0.02   0.01    -0.02   0.01   0.02     0.03   0.01   0.01
 186   1    -0.02   0.02   0.00    -0.02   0.00   0.03     0.03  -0.00   0.01
 187   1    -0.02   0.02   0.00    -0.02   0.00   0.03     0.02  -0.01   0.00
 188   1    -0.03   0.02   0.01    -0.02   0.01   0.02     0.01   0.00  -0.00
 189   1    -0.02   0.01  -0.01    -0.02   0.00   0.03     0.03  -0.01   0.01
 190   1    -0.01   0.00  -0.02    -0.02  -0.00   0.03     0.03  -0.02   0.01
 191   1     0.00   0.01  -0.01    -0.02  -0.00   0.03     0.03  -0.02   0.01
 192   1    -0.01   0.02  -0.00    -0.02   0.00   0.03     0.02  -0.02   0.01
 193   1     0.00  -0.01  -0.02    -0.02  -0.00   0.03     0.03  -0.02   0.01
 194   1     0.02  -0.01  -0.02    -0.01  -0.01   0.02     0.02  -0.01   0.01
 195   1     0.02  -0.01  -0.02    -0.01  -0.01   0.02     0.01  -0.01   0.01
 196   1     0.01  -0.00  -0.02    -0.01  -0.01   0.02     0.02  -0.02   0.01
 197   1     0.02  -0.01  -0.02     0.01  -0.00   0.01     0.01  -0.01   0.01
 198   1     0.02  -0.02  -0.01     0.00   0.00   0.00    -0.01  -0.01  -0.01
 199   1     0.03  -0.02  -0.02    -0.02   0.00   0.01    -0.03  -0.01   0.00
 200   1     0.03  -0.01  -0.02    -0.01  -0.00   0.02    -0.02  -0.01   0.02
                      7                      8                      9
                        a                      a                      a 
 Frequencies --    28.7169                34.3845                35.3159
 Red. masses --    11.3889                11.3720                11.3533
 Frc consts  --     0.0000                 0.0000                 0.0000
 IR Inten    --     0.4808                 1.1364                 0.0922
 Raman Activ --     0.0000                 0.0000                 0.0000
 Depolar     --     0.0000                 0.0000                 0.0000
 Atom AN      X      Y      Z        X      Y      Z        X      Y      Z
   1   6     0.02  -0.03   0.05    -0.11  -0.03  -0.01     0.01  -0.07  -0.05
   2   6     0.03  -0.03   0.04    -0.07  -0.04  -0.05     0.01  -0.09  -0.06
   3   6     0.04  -0.02   0.03    -0.03  -0.04  -0.06     0.04  -0.10  -0.06
   4   6     0.04  -0.03   0.03    -0.04  -0.04  -0.03     0.07  -0.08  -0.05
   5   6     0.02  -0.03   0.05    -0.07  -0.03   0.00     0.07  -0.06  -0.05
   6   6     0.02  -0.04   0.06    -0.10  -0.02   0.02     0.03  -0.04  -0.04
   7   6     0.05  -0.02   0.03     0.04  -0.05  -0.04     0.03  -0.09  -0.06
   8   6     0.04  -0.02   0.02     0.08  -0.06  -0.03     0.02  -0.08  -0.06
   9   6     0.02  -0.03   0.02     0.11  -0.05  -0.04     0.02  -0.08  -0.05
  10   6     0.03  -0.03   0.03     0.09  -0.04  -0.07     0.01  -0.10  -0.05
  11   6     0.04  -0.03   0.03     0.05  -0.04  -0.09     0.02  -0.11  -0.05
  12   6     0.05  -0.02   0.03     0.02  -0.05  -0.07     0.03  -0.10  -0.06
  13   6    -0.01  -0.03  -0.01     0.17  -0.05  -0.01     0.02  -0.04  -0.04
  14   6    -0.03  -0.02  -0.02     0.18  -0.05   0.01     0.02  -0.01  -0.02
  15   6    -0.04  -0.02  -0.04     0.17  -0.05   0.01    -0.00  -0.02   0.00
  16   6    -0.02  -0.02  -0.03     0.17  -0.05   0.01    -0.01  -0.04   0.01
  17   6    -0.00  -0.02  -0.01     0.16  -0.06  -0.00    -0.01  -0.06  -0.01
  18   6     0.00  -0.03   0.00     0.15  -0.05  -0.02     0.01  -0.06  -0.03
  19   6    -0.06  -0.02  -0.05     0.14  -0.03   0.01    -0.01   0.04   0.02
  20   6    -0.07  -0.02  -0.05     0.10  -0.01   0.00    -0.02   0.06   0.03
  21   6    -0.06  -0.02  -0.06     0.08   0.00   0.00    -0.03   0.05   0.05
  22   6    -0.06  -0.01  -0.06     0.11  -0.01   0.00    -0.03   0.03   0.06
  23   6    -0.05  -0.01  -0.06     0.14  -0.03   0.00    -0.03   0.01   0.04
  24   6    -0.05  -0.02  -0.05     0.16  -0.04   0.01    -0.01   0.01   0.02
  25   6    -0.05  -0.02  -0.06    -0.00   0.04  -0.01    -0.00   0.07   0.07
  26   6    -0.02  -0.01  -0.05    -0.05   0.04   0.00     0.01   0.08   0.08
  27   6    -0.01   0.01  -0.05    -0.06   0.02   0.03    -0.00   0.07   0.07
  28   6    -0.02  -0.00  -0.06    -0.04   0.00   0.04    -0.01   0.07   0.07
  29   6    -0.04  -0.01  -0.06    -0.00  -0.00   0.03    -0.02   0.06   0.07
  30   6    -0.05  -0.02  -0.06     0.02   0.02   0.01    -0.02   0.06   0.07
  31   6     0.02   0.05  -0.07    -0.10   0.02   0.05     0.03   0.06   0.06
  32   6     0.03   0.07  -0.07    -0.10   0.02   0.05     0.05   0.05   0.04
  33   6     0.05   0.08  -0.06    -0.09   0.02   0.05     0.04   0.04   0.02
  34   6     0.05   0.06  -0.05    -0.10   0.02   0.05     0.01   0.05   0.03
  35   6     0.04   0.04  -0.05    -0.10   0.02   0.05     0.00   0.06   0.05
  36   6     0.02   0.03  -0.06    -0.09   0.02   0.04     0.01   0.07   0.06
  37   6     0.05   0.11  -0.04    -0.08   0.03   0.00     0.05   0.01  -0.02
  38   6     0.04   0.12  -0.04    -0.06   0.04  -0.02     0.06  -0.02  -0.03
  39   6     0.04   0.11  -0.04    -0.04   0.03  -0.01     0.07  -0.04  -0.04
  40   6     0.04   0.11  -0.05    -0.03   0.03   0.01     0.07  -0.03  -0.03
  41   6     0.05   0.10  -0.05    -0.05   0.03   0.03     0.06  -0.01  -0.02
  42   6     0.05   0.10  -0.05    -0.07   0.03   0.03     0.05   0.02  -0.01
  43   6     0.03   0.09  -0.03     0.01   0.04  -0.03     0.08  -0.06  -0.04
  44   6     0.02   0.07  -0.01     0.02   0.04  -0.04     0.07  -0.06  -0.04
  45   6     0.02   0.06   0.00     0.02   0.03  -0.06     0.07  -0.05  -0.04
  46   6     0.03   0.08  -0.01    -0.00   0.03  -0.07     0.08  -0.05  -0.04
  47   6     0.03   0.10  -0.02    -0.02   0.03  -0.06     0.08  -0.05  -0.04
  48   6     0.03   0.11  -0.03    -0.01   0.04  -0.03     0.08  -0.05  -0.04
  49   6     0.01   0.01   0.03     0.05   0.01  -0.07     0.05  -0.03  -0.04
  50   6     0.01  -0.01   0.05     0.06  -0.00  -0.07     0.02  -0.01  -0.04
  51   6     0.02  -0.01   0.07     0.06   0.00  -0.07     0.00   0.00  -0.04
  52   6     0.04   0.01   0.07     0.05   0.01  -0.07     0.02  -0.00  -0.04
  53   6     0.04   0.03   0.05     0.04   0.01  -0.07     0.05  -0.02  -0.04
  54   6     0.02   0.03   0.03     0.04   0.02  -0.07     0.06  -0.04  -0.04
  55   6     0.02  -0.03   0.10     0.05  -0.02  -0.06    -0.06   0.01  -0.05
  56   6     0.01  -0.03   0.11     0.05  -0.02  -0.04    -0.08   0.02  -0.05
  57   6     0.01  -0.03   0.11     0.04  -0.01  -0.03    -0.09   0.04  -0.03
  58   6     0.02  -0.02   0.12     0.05   0.00  -0.05    -0.07   0.05  -0.03
  59   6     0.02  -0.02   0.11     0.05   0.01  -0.06    -0.04   0.05  -0.03
  60   6     0.02  -0.02   0.10     0.06  -0.00  -0.07    -0.03   0.02  -0.04
  61   6    -0.01  -0.04   0.09     0.02  -0.02   0.00    -0.10   0.04  -0.01
  62   6    -0.02  -0.04   0.06     0.00  -0.01   0.03    -0.10   0.04  -0.00
  63   6    -0.02  -0.03   0.04    -0.00   0.00   0.03    -0.11   0.04   0.01
  64   6    -0.02  -0.01   0.06     0.01   0.01   0.02    -0.11   0.04   0.01
  65   6    -0.01  -0.01   0.09     0.02   0.00  -0.00    -0.10   0.04   0.00
  66   6    -0.00  -0.02   0.10     0.03  -0.01  -0.01    -0.10   0.04  -0.01
  67   6    -0.04  -0.04  -0.02    -0.03   0.00   0.06    -0.09   0.05  -0.00
  68   6    -0.05  -0.06  -0.05    -0.05   0.00   0.06    -0.07   0.04  -0.00
  69   6    -0.06  -0.08  -0.05    -0.06   0.02   0.05    -0.06   0.03   0.01
  70   6    -0.05  -0.07  -0.03    -0.04   0.03   0.04    -0.06   0.02   0.03
  71   6    -0.04  -0.06  -0.01    -0.03   0.03   0.04    -0.08   0.03   0.03
  72   6    -0.04  -0.04   0.01    -0.02   0.01   0.05    -0.09   0.04   0.01
  73   6    -0.06  -0.10  -0.07    -0.08   0.02   0.04    -0.01   0.00   0.02
  74   6    -0.06  -0.10  -0.07    -0.09   0.01   0.04     0.02  -0.01   0.01
  75   6    -0.05  -0.10  -0.07    -0.09  -0.01   0.04     0.03  -0.02  -0.02
  76   6    -0.05  -0.11  -0.08    -0.09  -0.01   0.05     0.01   0.00  -0.03
  77   6    -0.06  -0.10  -0.08    -0.08   0.00   0.05    -0.01   0.02  -0.02
  78   6    -0.06  -0.09  -0.07    -0.08   0.01   0.05    -0.03   0.02   0.00
  79   6    -0.04  -0.07  -0.09    -0.09  -0.02   0.04     0.08  -0.05  -0.03
  80   6    -0.03  -0.05  -0.08    -0.07  -0.03   0.03     0.09  -0.06  -0.03
  81   6    -0.02  -0.05  -0.06    -0.06  -0.04   0.03     0.10  -0.06  -0.04
  82   6    -0.02  -0.07  -0.05    -0.07  -0.03   0.02     0.10  -0.06  -0.04
  83   6    -0.03  -0.08  -0.05    -0.08  -0.02   0.03     0.08  -0.05  -0.04
  84   6    -0.05  -0.09  -0.07    -0.09  -0.02   0.04     0.07  -0.04  -0.03
  85   6     0.00  -0.01  -0.07    -0.02  -0.05   0.02     0.06  -0.07  -0.04
  86   6     0.01   0.02  -0.07     0.00  -0.04   0.01     0.04  -0.06  -0.02
  87   6     0.03   0.03  -0.06     0.02  -0.03  -0.01     0.04  -0.06  -0.00
  88   6     0.03   0.02  -0.05     0.00  -0.03  -0.01     0.06  -0.06  -0.01
  89   6     0.02  -0.01  -0.05    -0.02  -0.04   0.00     0.08  -0.06  -0.02
  90   6     0.00  -0.02  -0.06    -0.03  -0.04   0.02     0.08  -0.07  -0.03
  91   6     0.02   0.07  -0.07     0.05  -0.02  -0.02    -0.03  -0.06   0.01
  92   6     0.02   0.08  -0.06     0.06  -0.01  -0.04    -0.05  -0.04   0.03
  93   6     0.02   0.08  -0.05     0.06  -0.00  -0.05    -0.04  -0.02   0.06
  94   6     0.03   0.08  -0.05     0.05  -0.01  -0.05    -0.00  -0.03   0.07
  95   6     0.03   0.07  -0.05     0.04  -0.02  -0.04     0.02  -0.04   0.05
  96   6     0.03   0.06  -0.06     0.03  -0.02  -0.02     0.01  -0.06   0.02
  97   6     0.01   0.08  -0.02     0.05   0.01  -0.06    -0.09   0.01   0.08
  98   6    -0.00   0.07   0.00     0.04   0.02  -0.05    -0.10   0.03   0.08
  99   6    -0.01   0.06   0.02     0.04   0.02  -0.04    -0.09   0.05   0.09
 100   6    -0.01   0.07   0.00     0.05   0.02  -0.05    -0.07   0.05   0.10
 101   6    -0.00   0.07  -0.02     0.06   0.02  -0.06    -0.05   0.03   0.10
 102   6     0.01   0.08  -0.04     0.06   0.01  -0.06    -0.06   0.01   0.08
 103   6    -0.01   0.05   0.06     0.03   0.04  -0.00    -0.10   0.08   0.06
 104   6    -0.01   0.03   0.07     0.02   0.04   0.02    -0.09   0.08   0.04
 105   6    -0.02   0.01   0.07    -0.00   0.04   0.02    -0.07   0.08   0.04
 106   6    -0.03   0.02   0.06    -0.01   0.03   0.00    -0.07   0.10   0.06
 107   6    -0.03   0.04   0.04     0.00   0.03  -0.02    -0.08   0.09   0.08
 108   6    -0.02   0.05   0.04     0.03   0.03  -0.02    -0.09   0.08   0.08
 109   6    -0.02  -0.02   0.08    -0.04   0.04   0.05    -0.02   0.06   0.00
 110   6    -0.01  -0.03   0.09    -0.06   0.03   0.06     0.01   0.04  -0.01
 111   6     0.01  -0.04   0.09    -0.05   0.03   0.07     0.03   0.04  -0.02
 112   6     0.02  -0.02   0.10    -0.03   0.04   0.07     0.02   0.04  -0.01
 113   6     0.01  -0.01   0.09    -0.01   0.04   0.05    -0.01   0.05  -0.00
 114   6    -0.01  -0.01   0.08    -0.02   0.04   0.04    -0.04   0.06   0.01
 115   6     0.04  -0.04   0.10    -0.08   0.03   0.07     0.03   0.03  -0.01
 116   6     0.03  -0.03   0.10    -0.09   0.01   0.06     0.02   0.01  -0.01
 117   6     0.02  -0.04   0.09    -0.10   0.00   0.05     0.03  -0.01  -0.02
 118   6     0.01  -0.05   0.09    -0.09   0.01   0.06     0.05   0.01  -0.02
 119   6     0.01  -0.05   0.10    -0.08   0.02   0.07     0.06   0.03  -0.02
 120   6     0.02  -0.04   0.10    -0.07   0.03   0.08     0.05   0.04  -0.02
 121   1     0.00  -0.01   0.02    -0.04  -0.01  -0.00    -0.00  -0.02  -0.01
 122   1     0.01  -0.01   0.01    -0.02  -0.01  -0.02    -0.00  -0.03  -0.02
 123   1     0.01  -0.01   0.01    -0.00  -0.01  -0.01     0.03  -0.02  -0.02
 124   1     0.01  -0.01   0.02    -0.02  -0.01   0.01     0.02  -0.01  -0.01
 125   1     0.02  -0.00   0.01     0.01  -0.02  -0.01     0.01  -0.03  -0.02
 126   1     0.01  -0.01   0.01     0.03  -0.02  -0.00     0.01  -0.02  -0.02
 127   1     0.01  -0.01   0.01     0.03  -0.01  -0.02    -0.00  -0.03  -0.01
 128   1     0.01  -0.01   0.01     0.01  -0.01  -0.03     0.00  -0.04  -0.01
 129   1    -0.00  -0.01   0.00     0.05  -0.01  -0.00     0.01  -0.01  -0.02
 130   1    -0.01  -0.01  -0.01     0.05  -0.01   0.00     0.01   0.00  -0.01
 131   1    -0.01  -0.01  -0.01     0.05  -0.02   0.00    -0.01  -0.01   0.01
 132   1     0.00  -0.01  -0.00     0.04  -0.02  -0.00    -0.00  -0.02  -0.00
 133   1    -0.02  -0.01  -0.01     0.04  -0.01   0.00     0.00   0.01   0.00
 134   1    -0.02  -0.01  -0.02     0.02  -0.00   0.00    -0.00   0.02   0.01
 135   1    -0.02  -0.00  -0.02     0.03  -0.00   0.00    -0.01   0.01   0.02
 136   1    -0.01  -0.00  -0.02     0.05  -0.01   0.00    -0.01  -0.00   0.01
 137   1    -0.02  -0.01  -0.02     0.00   0.01  -0.01     0.00   0.02   0.02
 138   1    -0.00  -0.00  -0.01    -0.02   0.01  -0.00     0.01   0.02   0.02
 139   1    -0.00   0.00  -0.02    -0.02  -0.00   0.02    -0.01   0.02   0.02
 140   1    -0.01  -0.00  -0.02     0.00  -0.00   0.01    -0.01   0.02   0.02
 141   1     0.00   0.01  -0.02    -0.03   0.01   0.01     0.01   0.02   0.02
 142   1     0.01   0.02  -0.02    -0.03   0.01   0.01     0.02   0.01   0.01
 143   1     0.02   0.02  -0.01    -0.03   0.01   0.02     0.00   0.01   0.00
 144   1     0.01   0.01  -0.01    -0.03   0.00   0.02    -0.00   0.02   0.01
 145   1     0.02   0.03  -0.01    -0.03   0.01  -0.00     0.01   0.01  -0.00
 146   1     0.01   0.04  -0.01    -0.02   0.01  -0.01     0.02  -0.01  -0.01
 147   1     0.01   0.03  -0.01    -0.00   0.01   0.01     0.02  -0.01  -0.01
 148   1     0.01   0.03  -0.02    -0.01   0.01   0.02     0.02  -0.00  -0.00
 149   1     0.01   0.03  -0.01     0.00   0.01  -0.00     0.02  -0.02  -0.01
 150   1     0.00   0.02  -0.00     0.01   0.01  -0.01     0.02  -0.02  -0.01
 151   1     0.01   0.02   0.00    -0.00   0.01  -0.03     0.02  -0.01  -0.01
 152   1     0.01   0.03  -0.01    -0.01   0.01  -0.02     0.02  -0.01  -0.01
 153   1     0.00   0.00   0.00     0.01   0.00  -0.02     0.02  -0.01  -0.01
 154   1     0.00  -0.01   0.01     0.02  -0.00  -0.02     0.00  -0.00  -0.01
 155   1     0.01   0.01   0.03     0.01   0.00  -0.02     0.00   0.00  -0.01
 156   1     0.01   0.02   0.01     0.01   0.01  -0.02     0.02  -0.01  -0.01
 157   1     0.01  -0.01   0.03     0.02  -0.01  -0.02    -0.02  -0.00  -0.02
 158   1     0.00  -0.01   0.03     0.01  -0.01  -0.01    -0.03   0.00  -0.02
 159   1     0.01  -0.00   0.04     0.01   0.00  -0.01    -0.02   0.02  -0.01
 160   1     0.01  -0.00   0.03     0.02   0.01  -0.02    -0.01   0.02  -0.01
 161   1    -0.00  -0.01   0.03     0.01  -0.01  -0.00    -0.03   0.01  -0.01
 162   1    -0.01  -0.01   0.02    -0.00  -0.00   0.01    -0.03   0.01  -0.00
 163   1    -0.01  -0.00   0.01     0.00   0.01   0.01    -0.03   0.01   0.01
 164   1    -0.00  -0.00   0.03     0.01   0.00  -0.00    -0.03   0.01   0.00
 165   1    -0.01  -0.01  -0.00    -0.01  -0.00   0.02    -0.03   0.02  -0.00
 166   1    -0.02  -0.02  -0.02    -0.02  -0.00   0.02    -0.02   0.01  -0.00
 167   1    -0.02  -0.02  -0.01    -0.01   0.01   0.01    -0.02   0.00   0.01
 168   1    -0.01  -0.02   0.00    -0.01   0.01   0.01    -0.03   0.01   0.01
 169   1    -0.02  -0.03  -0.02    -0.02   0.01   0.01    -0.01   0.00   0.01
 170   1    -0.02  -0.03  -0.02    -0.03   0.00   0.01     0.01  -0.01   0.00
 171   1    -0.02  -0.03  -0.02    -0.03  -0.01   0.01     0.01   0.00  -0.02
 172   1    -0.02  -0.03  -0.02    -0.02  -0.00   0.02    -0.01   0.01  -0.01
 173   1    -0.01  -0.02  -0.03    -0.03  -0.01   0.01     0.02  -0.01  -0.01
 174   1    -0.01  -0.01  -0.03    -0.02  -0.01   0.01     0.03  -0.02  -0.01
 175   1    -0.00  -0.02  -0.01    -0.02  -0.01   0.01     0.03  -0.02  -0.01
 176   1    -0.01  -0.03  -0.01    -0.03  -0.01   0.01     0.02  -0.01  -0.01
 177   1    -0.00  -0.00  -0.02    -0.01  -0.01   0.01     0.02  -0.02  -0.01
 178   1     0.00   0.01  -0.02     0.00  -0.01   0.00     0.01  -0.02  -0.01
 179   1     0.01   0.01  -0.01     0.00  -0.01  -0.01     0.02  -0.02   0.00
 180   1     0.01  -0.01  -0.01    -0.01  -0.01  -0.00     0.03  -0.02  -0.00
 181   1     0.01   0.02  -0.02     0.01  -0.01  -0.00    -0.01  -0.02  -0.00
 182   1     0.00   0.02  -0.02     0.02  -0.00  -0.01    -0.02  -0.01   0.01
 183   1     0.01   0.02  -0.01     0.01  -0.00  -0.02     0.00  -0.00   0.03
 184   1     0.01   0.02  -0.01     0.01  -0.01  -0.01     0.01  -0.01   0.02
 185   1     0.00   0.02  -0.01     0.01   0.00  -0.02    -0.03  -0.00   0.02
 186   1    -0.00   0.02   0.00     0.01   0.01  -0.02    -0.04   0.01   0.02
 187   1    -0.01   0.02   0.00     0.02   0.01  -0.01    -0.02   0.02   0.03
 188   1     0.00   0.02  -0.01     0.02   0.00  -0.02    -0.01   0.01   0.03
 189   1     0.00   0.02   0.02     0.01   0.01  -0.00    -0.03   0.02   0.02
 190   1     0.00   0.01   0.02     0.01   0.01   0.01    -0.03   0.02   0.01
 191   1    -0.01   0.00   0.02    -0.01   0.01   0.00    -0.01   0.03   0.02
 192   1    -0.01   0.01   0.01    -0.00   0.01  -0.01    -0.02   0.03   0.03
 193   1    -0.01  -0.01   0.02    -0.01   0.01   0.01    -0.01   0.02   0.00
 194   1    -0.00  -0.01   0.02    -0.02   0.01   0.02     0.01   0.01  -0.00
 195   1     0.01  -0.01   0.03    -0.01   0.01   0.02     0.01   0.01  -0.01
 196   1     0.01   0.00   0.03     0.00   0.01   0.01    -0.00   0.02   0.00
 197   1     0.01  -0.01   0.03    -0.02   0.01   0.02     0.01   0.01  -0.00
 198   1     0.01  -0.01   0.03    -0.03   0.00   0.02     0.00   0.00  -0.00
 199   1    -0.00  -0.01   0.03    -0.03   0.00   0.02     0.02   0.00  -0.01
 200   1     0.00  -0.01   0.03    -0.02   0.01   0.02     0.02   0.01  -0.01
                     10                     11                     12
                        a                      a                      a 
 Frequencies --    38.0867                44.4725                44.8372
 Red. masses --    11.3582                11.3252                11.3487
 Frc consts  --     0.0000                 0.0000                 0.0000
 IR Inten    --     1.1430                 0.6788                 0.3143
 Raman Activ --     0.0000                 0.0000                 0.0000
 Depolar     --     0.0000                 0.0000                 0.0000
 Atom AN      X      Y      Z        X      Y      Z        X      Y      Z
   1   6     0.09   0.12   0.01     0.04  -0.03   0.05     0.09   0.08  -0.07
   2   6     0.08   0.10   0.02     0.06  -0.02   0.03     0.08   0.09  -0.06
   3   6     0.07   0.08   0.05     0.07  -0.01   0.02     0.04   0.08  -0.04
   4   6     0.08   0.09   0.07     0.05  -0.01   0.01     0.04   0.08  -0.04
   5   6     0.09   0.11   0.05     0.04  -0.03   0.03     0.06   0.07  -0.05
   6   6     0.10   0.12   0.02     0.03  -0.04   0.06     0.07   0.07  -0.06
   7   6     0.03   0.02   0.05     0.06   0.02   0.01    -0.03   0.05  -0.05
   8   6     0.00  -0.01   0.03     0.03   0.02  -0.00    -0.07   0.04  -0.07
   9   6    -0.01  -0.02   0.00     0.01   0.00  -0.01    -0.09   0.03  -0.07
  10   6     0.00  -0.00   0.01     0.02  -0.00   0.02    -0.08   0.03  -0.04
  11   6     0.03   0.02   0.03     0.05  -0.00   0.03    -0.04   0.05  -0.03
  12   6     0.04   0.04   0.05     0.07   0.00   0.02    -0.01   0.06  -0.03
  13   6    -0.04  -0.06  -0.02    -0.05   0.01  -0.05    -0.11   0.03  -0.07
  14   6    -0.04  -0.07  -0.04    -0.08   0.01  -0.07    -0.09   0.02  -0.06
  15   6    -0.03  -0.07  -0.05    -0.08   0.02  -0.08    -0.07   0.02  -0.04
  16   6    -0.02  -0.05  -0.06    -0.08   0.02  -0.08    -0.08   0.02  -0.06
  17   6    -0.02  -0.04  -0.04    -0.05   0.01  -0.06    -0.10   0.03  -0.07
  18   6    -0.02  -0.04  -0.02    -0.03   0.01  -0.04    -0.11   0.03  -0.08
  19   6    -0.02  -0.08  -0.06    -0.08   0.02  -0.09     0.01   0.01  -0.01
  20   6    -0.02  -0.07  -0.05    -0.05   0.02  -0.08     0.04   0.01   0.01
  21   6    -0.02  -0.08  -0.05    -0.04   0.01  -0.07     0.05  -0.01   0.03
  22   6    -0.01  -0.08  -0.05    -0.05   0.00  -0.07     0.02  -0.02   0.03
  23   6    -0.01  -0.09  -0.05    -0.08   0.01  -0.07    -0.01  -0.02   0.01
  24   6    -0.02  -0.08  -0.06    -0.08   0.02  -0.08    -0.02   0.00  -0.02
  25   6    -0.04  -0.04  -0.04     0.03   0.01  -0.04     0.05   0.01   0.04
  26   6    -0.04  -0.02  -0.02     0.06   0.03  -0.04     0.03   0.01   0.04
  27   6    -0.03  -0.02   0.00     0.08   0.04  -0.04     0.01  -0.01   0.05
  28   6    -0.03  -0.04   0.01     0.07   0.04  -0.04     0.03  -0.01   0.06
  29   6    -0.03  -0.07  -0.01     0.03   0.02  -0.05     0.05  -0.00   0.06
  30   6    -0.03  -0.06  -0.03     0.01   0.01  -0.05     0.06   0.00   0.05
  31   6    -0.05   0.03   0.02     0.08   0.05  -0.04    -0.04  -0.06   0.09
  32   6    -0.06   0.05   0.03     0.06   0.05  -0.02    -0.06  -0.08   0.10
  33   6    -0.04   0.06   0.06     0.04   0.04   0.00    -0.07  -0.09   0.08
  34   6    -0.03   0.04   0.07     0.06   0.04  -0.01    -0.08  -0.07   0.07
  35   6    -0.03   0.01   0.05     0.08   0.05  -0.03    -0.06  -0.05   0.06
  36   6    -0.04   0.01   0.02     0.09   0.05  -0.04    -0.03  -0.04   0.07
  37   6    -0.05   0.09   0.07     0.02   0.00   0.06    -0.07  -0.10   0.04
  38   6    -0.04   0.09   0.06     0.00  -0.03   0.08    -0.05  -0.09   0.02
  39   6    -0.03   0.08   0.06    -0.03  -0.04   0.06    -0.03  -0.07   0.04
  40   6    -0.03   0.09   0.07    -0.04  -0.01   0.04    -0.03  -0.08   0.06
  41   6    -0.04   0.09   0.07    -0.02   0.02   0.02    -0.04  -0.09   0.08
  42   6    -0.04   0.08   0.07     0.01   0.02   0.03    -0.07  -0.10   0.07
  43   6     0.01   0.05   0.06    -0.03  -0.08   0.08     0.00  -0.02   0.01
  44   6     0.03   0.02   0.05    -0.03  -0.08   0.08     0.01   0.02  -0.02
  45   6     0.03  -0.01   0.04    -0.03  -0.09   0.07     0.01   0.03  -0.04
  46   6     0.00   0.00   0.02    -0.03  -0.10   0.08    -0.00   0.01  -0.03
  47   6    -0.02   0.03   0.03    -0.04  -0.10   0.08    -0.02  -0.02  -0.01
  48   6    -0.01   0.05   0.05    -0.04  -0.07   0.08    -0.01  -0.04   0.02
  49   6     0.08  -0.04   0.03    -0.00  -0.03   0.05     0.03   0.06  -0.06
  50   6     0.09  -0.05   0.03     0.00  -0.01   0.01     0.03   0.06  -0.07
  51   6     0.09  -0.06   0.02    -0.01  -0.02  -0.02     0.02   0.06  -0.08
  52   6     0.08  -0.06   0.02    -0.03  -0.06  -0.02     0.01   0.06  -0.08
  53   6     0.07  -0.05   0.02    -0.03  -0.08   0.02     0.00   0.06  -0.07
  54   6     0.06  -0.03   0.03    -0.02  -0.07   0.05     0.01   0.05  -0.06
  55   6     0.09  -0.05   0.00     0.00   0.02  -0.07     0.03   0.04  -0.06
  56   6     0.07  -0.04  -0.02     0.01   0.02  -0.09     0.04   0.03  -0.03
  57   6     0.06  -0.03  -0.04     0.01   0.01  -0.11     0.04   0.04  -0.01
  58   6     0.07  -0.03  -0.03    -0.00   0.00  -0.10     0.03   0.05  -0.04
  59   6     0.09  -0.04  -0.01    -0.01  -0.00  -0.08     0.03   0.06  -0.07
  60   6     0.09  -0.05   0.01    -0.01  -0.00  -0.06     0.03   0.06  -0.08
  61   6     0.02  -0.04  -0.06     0.03   0.02  -0.09     0.04   0.04   0.05
  62   6    -0.01  -0.04  -0.07     0.04   0.03  -0.06     0.04   0.04   0.08
  63   6    -0.02  -0.01  -0.07     0.04   0.02  -0.04     0.04   0.04   0.08
  64   6     0.00   0.01  -0.07     0.03   0.00  -0.06     0.04   0.03   0.07
  65   6     0.03   0.01  -0.07     0.03   0.00  -0.09     0.04   0.03   0.05
  66   6     0.04  -0.02  -0.06     0.02   0.01  -0.10     0.04   0.03   0.03
  67   6    -0.06  -0.01  -0.05     0.05   0.03   0.04     0.02   0.03   0.07
  68   6    -0.08  -0.00  -0.04     0.04   0.05   0.07    -0.00   0.02   0.04
  69   6    -0.08   0.02  -0.03     0.04   0.07   0.07    -0.01   0.00   0.03
  70   6    -0.07   0.03  -0.05     0.04   0.08   0.05     0.00   0.02   0.05
  71   6    -0.05   0.02  -0.07     0.05   0.06   0.02     0.02   0.03   0.07
  72   6    -0.05   0.00  -0.06     0.04   0.04   0.01     0.03   0.04   0.08
  73   6    -0.08   0.05  -0.00     0.01   0.08   0.06    -0.05  -0.04  -0.03
  74   6    -0.07   0.06   0.00    -0.01   0.06   0.05    -0.06  -0.07  -0.04
  75   6    -0.07   0.06  -0.00    -0.02   0.04   0.06    -0.07  -0.10  -0.04
  76   6    -0.07   0.06  -0.01    -0.01   0.05   0.08    -0.06  -0.10  -0.02
  77   6    -0.08   0.05  -0.02     0.01   0.07   0.09    -0.04  -0.07  -0.01
  78   6    -0.08   0.04  -0.02     0.02   0.08   0.07    -0.04  -0.03  -0.00
  79   6    -0.03   0.05  -0.00    -0.04  -0.02   0.07    -0.08  -0.09  -0.05
  80   6     0.00   0.03  -0.01    -0.05  -0.06   0.06    -0.07  -0.08  -0.05
  81   6     0.02   0.03  -0.02    -0.05  -0.07   0.03    -0.05  -0.08  -0.04
  82   6    -0.00   0.04  -0.02    -0.05  -0.04   0.00    -0.05  -0.09  -0.03
  83   6    -0.03   0.05  -0.01    -0.04  -0.01   0.01    -0.06  -0.10  -0.03
  84   6    -0.05   0.05  -0.01    -0.03  -0.00   0.04    -0.07  -0.10  -0.04
  85   6     0.05  -0.00  -0.02    -0.06  -0.10   0.03    -0.03  -0.04  -0.05
  86   6     0.05  -0.02  -0.02    -0.04  -0.11   0.02    -0.00  -0.00  -0.05
  87   6     0.04  -0.03  -0.03    -0.03  -0.10  -0.00     0.02   0.02  -0.04
  88   6     0.04  -0.01  -0.05    -0.03  -0.09  -0.00     0.02  -0.00  -0.02
  89   6     0.04   0.01  -0.05    -0.05  -0.09   0.00     0.00  -0.04  -0.02
  90   6     0.04   0.01  -0.03    -0.05  -0.09   0.02    -0.03  -0.06  -0.03
  91   6     0.02  -0.08  -0.02     0.01  -0.06  -0.02     0.02   0.06  -0.05
  92   6     0.01  -0.10   0.00     0.02  -0.03  -0.05     0.01   0.07  -0.05
  93   6     0.01  -0.11   0.01     0.02  -0.00  -0.07     0.02   0.07  -0.03
  94   6     0.02  -0.09   0.01     0.01  -0.02  -0.06     0.03   0.08  -0.03
  95   6     0.03  -0.07  -0.01    -0.00  -0.06  -0.04     0.03   0.07  -0.04
  96   6     0.03  -0.06  -0.02    -0.01  -0.08  -0.02     0.03   0.05  -0.04
  97   6    -0.02  -0.11   0.04     0.01   0.04  -0.10     0.01   0.05   0.02
  98   6    -0.03  -0.10   0.05    -0.01   0.06  -0.09     0.00   0.03   0.05
  99   6    -0.02  -0.09   0.06    -0.00   0.08  -0.07    -0.01   0.02   0.06
 100   6    -0.01  -0.09   0.06     0.02   0.07  -0.07    -0.02   0.02   0.04
 101   6    -0.00  -0.10   0.05     0.04   0.05  -0.08    -0.01   0.04   0.01
 102   6    -0.00  -0.11   0.03     0.03   0.03  -0.09     0.00   0.06  -0.00
 103   6    -0.05  -0.06   0.05    -0.02   0.10  -0.01     0.00  -0.02   0.07
 104   6    -0.06  -0.03   0.04    -0.03   0.09   0.02     0.01  -0.04   0.07
 105   6    -0.05  -0.00   0.04    -0.05   0.07   0.02     0.02  -0.05   0.07
 106   6    -0.04  -0.01   0.05    -0.07   0.07  -0.01     0.01  -0.04   0.07
 107   6    -0.03  -0.04   0.06    -0.06   0.08  -0.03    -0.00  -0.02   0.07
 108   6    -0.03  -0.06   0.06    -0.03   0.09  -0.04    -0.01  -0.01   0.07
 109   6    -0.04   0.05   0.02    -0.06   0.00   0.04     0.04  -0.05   0.06
 110   6    -0.02   0.06  -0.00    -0.04  -0.03   0.06     0.07  -0.05   0.04
 111   6    -0.01   0.06  -0.03    -0.00  -0.03   0.08     0.07  -0.05   0.03
 112   6    -0.04   0.03  -0.03     0.01  -0.00   0.09     0.06  -0.06   0.03
 113   6    -0.06   0.02  -0.01    -0.01   0.03   0.07     0.04  -0.06   0.05
 114   6    -0.05   0.02   0.02    -0.04   0.03   0.05     0.03  -0.05   0.06
 115   6     0.04   0.08  -0.06     0.05  -0.04   0.11     0.13  -0.02  -0.02
 116   6     0.07   0.10  -0.04     0.05  -0.04   0.11     0.12   0.01  -0.04
 117   6     0.10   0.12  -0.02     0.03  -0.05   0.10     0.08   0.04  -0.04
 118   6     0.10   0.12  -0.02     0.02  -0.07   0.09     0.05   0.02  -0.01
 119   6     0.07   0.10  -0.04     0.01  -0.07   0.09     0.05  -0.01   0.02
 120   6     0.03   0.08  -0.05     0.02  -0.05   0.09     0.09  -0.03   0.01
 121   1     0.03   0.04  -0.00     0.01  -0.01   0.02     0.03   0.02  -0.02
 122   1     0.02   0.03   0.00     0.02  -0.00   0.01     0.02   0.03  -0.02
 123   1     0.02   0.02   0.03     0.02  -0.00  -0.00     0.01   0.02  -0.01
 124   1     0.03   0.03   0.02     0.01  -0.01   0.01     0.01   0.02  -0.02
 125   1     0.01   0.01   0.02     0.02   0.01   0.00    -0.01   0.02  -0.02
 126   1    -0.00  -0.01   0.01     0.01   0.01  -0.01    -0.02   0.01  -0.02
 127   1    -0.00  -0.00  -0.00    -0.00  -0.00   0.01    -0.03   0.01  -0.01
 128   1     0.01   0.01   0.01     0.02  -0.00   0.01    -0.01   0.01  -0.00
 129   1    -0.01  -0.02  -0.00    -0.01   0.00  -0.01    -0.03   0.01  -0.02
 130   1    -0.01  -0.02  -0.01    -0.03   0.00  -0.02    -0.02   0.01  -0.02
 131   1    -0.00  -0.01  -0.02    -0.02   0.01  -0.03    -0.02   0.01  -0.02
 132   1    -0.00  -0.01  -0.01    -0.01   0.00  -0.01    -0.03   0.01  -0.02
 133   1    -0.01  -0.02  -0.02    -0.02   0.01  -0.03     0.00   0.01  -0.01
 134   1    -0.01  -0.02  -0.02    -0.01   0.01  -0.02     0.02   0.01   0.00
 135   1    -0.00  -0.03  -0.01    -0.01  -0.00  -0.02     0.01  -0.01   0.01
 136   1    -0.00  -0.03  -0.02    -0.02   0.00  -0.02    -0.01  -0.01   0.00
 137   1    -0.01  -0.01  -0.02     0.00   0.00  -0.01     0.02   0.01   0.01
 138   1    -0.01  -0.00  -0.01     0.02   0.01  -0.01     0.00   0.00   0.01
 139   1    -0.01  -0.01   0.01     0.02   0.01  -0.01     0.01  -0.00   0.02
 140   1    -0.01  -0.02  -0.00     0.01   0.01  -0.02     0.02  -0.00   0.02
 141   1    -0.02   0.01  -0.00     0.03   0.02  -0.01    -0.01  -0.02   0.03
 142   1    -0.02   0.02   0.01     0.02   0.01  -0.00    -0.02  -0.03   0.03
 143   1    -0.01   0.01   0.03     0.01   0.01  -0.00    -0.03  -0.02   0.02
 144   1    -0.00  -0.00   0.02     0.03   0.01  -0.01    -0.02  -0.01   0.01
 145   1    -0.01   0.03   0.02     0.01   0.00   0.02    -0.03  -0.03   0.01
 146   1    -0.01   0.02   0.02     0.00  -0.01   0.03    -0.02  -0.03   0.00
 147   1    -0.01   0.03   0.02    -0.02  -0.01   0.01    -0.00  -0.02   0.02
 148   1    -0.01   0.03   0.02    -0.01   0.01  -0.00    -0.01  -0.02   0.03
 149   1     0.01   0.02   0.02    -0.01  -0.02   0.02     0.00  -0.01   0.01
 150   1     0.02   0.00   0.02    -0.01  -0.02   0.02     0.01   0.01  -0.01
 151   1    -0.00  -0.01   0.00    -0.01  -0.03   0.02    -0.00   0.01  -0.01
 152   1    -0.01   0.01   0.01    -0.01  -0.03   0.02    -0.01  -0.01  -0.00
 153   1     0.02  -0.01   0.01     0.00  -0.01   0.02     0.01   0.02  -0.01
 154   1     0.03  -0.01   0.01     0.00   0.00   0.00     0.01   0.02  -0.02
 155   1     0.03  -0.02   0.00    -0.01  -0.02  -0.01     0.00   0.02  -0.03
 156   1     0.02  -0.01   0.01    -0.01  -0.03   0.00    -0.00   0.02  -0.02
 157   1     0.03  -0.02   0.00     0.00   0.01  -0.02     0.01   0.01  -0.02
 158   1     0.02  -0.01  -0.01     0.00   0.01  -0.03     0.01   0.01  -0.00
 159   1     0.02  -0.01  -0.01    -0.00  -0.00  -0.03     0.01   0.02  -0.01
 160   1     0.03  -0.01  -0.00    -0.00  -0.00  -0.02     0.01   0.02  -0.03
 161   1     0.01  -0.02  -0.02     0.01   0.01  -0.03     0.01   0.01   0.01
 162   1    -0.01  -0.01  -0.02     0.01   0.01  -0.01     0.01   0.01   0.03
 163   1    -0.00   0.01  -0.02     0.01  -0.00  -0.01     0.01   0.01   0.02
 164   1     0.01   0.01  -0.02     0.01  -0.00  -0.03     0.01   0.01   0.01
 165   1    -0.02  -0.01  -0.02     0.01   0.00   0.01     0.01   0.01   0.02
 166   1    -0.02  -0.00  -0.01     0.01   0.01   0.03    -0.00   0.00   0.01
 167   1    -0.02   0.01  -0.02     0.01   0.03   0.01    -0.00   0.00   0.01
 168   1    -0.01   0.01  -0.02     0.01   0.02  -0.00     0.01   0.01   0.02
 169   1    -0.02   0.01   0.00     0.00   0.03   0.01    -0.01  -0.00  -0.01
 170   1    -0.02   0.02   0.00    -0.00   0.02   0.01    -0.02  -0.02  -0.02
 171   1    -0.02   0.02  -0.01    -0.00   0.01   0.03    -0.02  -0.04  -0.01
 172   1    -0.02   0.01  -0.01     0.00   0.02   0.03    -0.01  -0.02   0.00
 173   1    -0.01   0.01   0.00    -0.01  -0.01   0.03    -0.03  -0.03  -0.02
 174   1     0.00   0.01  -0.00    -0.01  -0.02   0.02    -0.02  -0.02  -0.02
 175   1     0.00   0.01  -0.01    -0.01  -0.01  -0.01    -0.01  -0.03  -0.01
 176   1    -0.01   0.02  -0.00    -0.01   0.00  -0.00    -0.02  -0.03  -0.01
 177   1     0.02   0.00  -0.00    -0.02  -0.03   0.01    -0.01  -0.02  -0.02
 178   1     0.02  -0.01  -0.00    -0.01  -0.03   0.01    -0.00   0.00  -0.02
 179   1     0.01  -0.01  -0.02    -0.01  -0.03  -0.00     0.01   0.00  -0.00
 180   1     0.01   0.00  -0.02    -0.01  -0.02  -0.00     0.00  -0.02  -0.00
 181   1     0.01  -0.02  -0.01     0.00  -0.02  -0.00     0.00   0.02  -0.02
 182   1    -0.00  -0.03   0.00     0.01  -0.01  -0.01     0.00   0.02  -0.01
 183   1     0.01  -0.03   0.00     0.00  -0.00  -0.02     0.01   0.02  -0.01
 184   1     0.01  -0.02  -0.00    -0.00  -0.02  -0.01     0.01   0.02  -0.01
 185   1    -0.01  -0.03   0.01    -0.00   0.01  -0.03     0.01   0.02   0.00
 186   1    -0.01  -0.03   0.02    -0.01   0.02  -0.03     0.00   0.01   0.02
 187   1    -0.00  -0.02   0.02     0.01   0.03  -0.02    -0.01   0.00   0.01
 188   1     0.00  -0.03   0.01     0.02   0.01  -0.02    -0.01   0.01  -0.00
 189   1    -0.01  -0.02   0.01     0.00   0.03  -0.00     0.00  -0.00   0.02
 190   1    -0.02  -0.01   0.01    -0.00   0.03   0.01     0.01  -0.01   0.02
 191   1    -0.01   0.00   0.02    -0.03   0.02  -0.00     0.00  -0.01   0.02
 192   1    -0.01  -0.01   0.02    -0.02   0.02  -0.02    -0.00  -0.00   0.02
 193   1    -0.01   0.02   0.01    -0.03   0.00   0.01     0.01  -0.01   0.02
 194   1     0.00   0.02  -0.00    -0.02  -0.01   0.02     0.02  -0.01   0.01
 195   1    -0.01   0.01  -0.02     0.01  -0.00   0.03     0.02  -0.02   0.00
 196   1    -0.02   0.00  -0.00     0.00   0.02   0.02     0.01  -0.02   0.01
 197   1     0.01   0.02  -0.02     0.02  -0.01   0.03     0.05  -0.01  -0.01
 198   1     0.02   0.03  -0.01     0.02  -0.01   0.04     0.04   0.01  -0.02
[...]
 154   1    -0.00   0.00   0.00    -0.00   0.00   0.00    -0.00   0.00   0.00
 155   1    -0.00  -0.00   0.00    -0.00  -0.00   0.00     0.00   0.00  -0.00
 156   1    -0.00   0.00   0.00    -0.00   0.00   0.00     0.00  -0.00  -0.00
 157   1    -0.00  -0.00   0.00    -0.00  -0.00   0.00    -0.00  -0.00   0.00
 158   1    -0.00   0.00   0.00    -0.00   0.00   0.00     0.00  -0.00  -0.00
 159   1    -0.00  -0.00   0.00    -0.00  -0.00   0.00     0.00   0.00  -0.00
 160   1    -0.00   0.00   0.00    -0.00   0.00   0.00     0.00  -0.00  -0.00
 161   1     0.00   0.00   0.00     0.00   0.00  -0.00     0.00   0.00   0.00
 162   1     0.00  -0.00   0.00     0.00  -0.00   0.00     0.00  -0.00   0.00
 163   1    -0.00  -0.00  -0.00     0.00   0.00   0.00     0.00   0.00   0.00
 164   1    -0.00   0.00  -0.00    -0.00   0.00  -0.00     0.00  -0.00   0.00
 165   1    -0.00  -0.00   0.00     0.00   0.00  -0.00     0.00   0.00  -0.00
 166   1    -0.00   0.00   0.00     0.00  -0.00  -0.00     0.00  -0.00  -0.00
 167   1    -0.00  -0.00   0.00     0.00   0.00  -0.00     0.00   0.00  -0.00
 168   1    -0.00   0.00   0.00     0.00  -0.00  -0.00     0.00  -0.00  -0.00
 169   1     0.00  -0.00   0.00     0.00  -0.00   0.00     0.00  -0.00   0.00
 170   1     0.00   0.00  -0.00     0.00   0.00  -0.00     0.00   0.00  -0.00
 171   1    -0.00   0.00  -0.00     0.00  -0.00   0.00     0.00  -0.00   0.00
 172   1    -0.00  -0.00   0.00     0.00   0.00  -0.00     0.00   0.00  -0.00
 173   1     0.00   0.00  -0.00     0.00  -0.00  -0.00    -0.00  -0.00   0.00
 174   1     0.01   0.01   0.01    -0.00  -0.00  -0.00    -0.00  -0.01  -0.01
 175   1     0.01   0.05  -0.01    -0.00  -0.00   0.00    -0.01  -0.03   0.01
 176   1     0.00   0.01   0.01    -0.00  -0.00  -0.00    -0.00  -0.01  -0.01
 177   1     0.00  -0.01   0.00     0.00  -0.00   0.00    -0.00   0.00   0.00
 178   1     0.00  -0.02  -0.02    -0.00   0.00   0.00     0.00  -0.00  -0.00
 179   1    -0.05   0.08  -0.01    -0.00   0.00   0.00     0.08  -0.11   0.01
 180   1    -0.11   0.52   0.62     0.00  -0.01  -0.01     0.07  -0.31  -0.36
 181   1    -0.01   0.00   0.00     0.00  -0.00  -0.00    -0.02   0.01   0.01
 182   1    -0.00   0.00   0.01     0.00  -0.00  -0.00    -0.01   0.02   0.03
 183   1     0.05  -0.01  -0.01    -0.00   0.00   0.00     0.09  -0.03  -0.02
 184   1     0.12  -0.21  -0.43    -0.01   0.01   0.02     0.20  -0.35  -0.71
 185   1    -0.00   0.00  -0.00     0.00  -0.00  -0.00    -0.00   0.00  -0.00
 186   1     0.00   0.00   0.00     0.00   0.00   0.00     0.00   0.01   0.00
 187   1     0.00  -0.00   0.00    -0.00   0.00  -0.00     0.00  -0.00   0.00
 188   1    -0.00  -0.00  -0.00     0.00   0.00   0.00    -0.00  -0.00  -0.00
 189   1    -0.00   0.00  -0.00     0.00  -0.00   0.00    -0.00   0.00  -0.00
 190   1     0.00   0.00  -0.00     0.00   0.00  -0.00     0.00   0.00  -0.00
 191   1     0.00  -0.00   0.00     0.00  -0.00   0.00     0.00  -0.00   0.00
 192   1    -0.00  -0.00   0.00    -0.00  -0.00   0.00     0.00   0.00  -0.00
 193   1    -0.00  -0.00   0.00     0.00   0.00  -0.00    -0.00  -0.00   0.00
 194   1    -0.00   0.00  -0.00     0.00  -0.00   0.00     0.00  -0.00   0.00
 195   1     0.00   0.00  -0.00     0.00   0.01  -0.00    -0.00  -0.00   0.00
 196   1    -0.00   0.00  -0.00    -0.00   0.00  -0.00     0.00  -0.00   0.00
 197   1     0.00   0.00  -0.00     0.00   0.00  -0.00    -0.00  -0.00   0.00
 198   1     0.00  -0.00   0.00    -0.00   0.00  -0.00     0.00  -0.00   0.00
 199   1     0.00   0.00  -0.00    -0.00  -0.00   0.00    -0.00  -0.00   0.00
 200   1    -0.00   0.00  -0.00    -0.00   0.00  -0.00     0.00  -0.00   0.00
                    592                    593                    594
                        a                      a                      a 
 Frequencies --  3085.1244              3105.8947              3109.0839
 Red. masses --     1.8604                 1.8343                 1.8370
 Frc consts  --     0.0000                 0.0000                 0.0000
 IR Inten    --    11.7609                 1.2574                 1.0425
 Raman Activ --     0.0000                 0.0000                 0.0000
 Depolar     --     0.0000                 0.0000                 0.0000
 Atom AN      X      Y      Z        X      Y      Z        X      Y      Z
   1   6     0.00   0.00   0.00     0.00   0.00   0.00    -0.00  -0.00  -0.00
   2   6    -0.00   0.00  -0.00     0.00  -0.00   0.00     0.00  -0.00   0.00
   3   6     0.00  -0.00  -0.00     0.00  -0.00   0.00     0.00  -0.00  -0.00
   4   6    -0.00  -0.00  -0.00    -0.00  -0.00  -0.00     0.00   0.00   0.00
   5   6     0.00  -0.00   0.00     0.00  -0.00   0.00    -0.00   0.00  -0.00
   6   6    -0.00  -0.00   0.00     0.00   0.00  -0.00    -0.00   0.00  -0.00
   7   6    -0.00   0.00  -0.00     0.03  -0.04   0.01    -0.01   0.01  -0.00
   8   6     0.00  -0.00  -0.00     0.20  -0.11  -0.14    -0.03   0.02   0.02
   9   6     0.00  -0.00  -0.00     0.00   0.00  -0.01    -0.00  -0.01   0.01
  10   6     0.00  -0.00   0.00     0.02  -0.04   0.01     0.12  -0.23   0.07
  11   6    -0.00   0.00   0.00     0.00  -0.00  -0.00     0.03  -0.02  -0.02
  12   6    -0.00   0.00  -0.00    -0.00   0.00   0.00    -0.00   0.00  -0.00
  13   6     0.00   0.00   0.00    -0.00  -0.01  -0.00     0.00  -0.00  -0.00
  14   6    -0.00   0.00   0.00     0.00  -0.00  -0.00    -0.00  -0.00   0.00
  15   6     0.00   0.00  -0.00    -0.00   0.00   0.00    -0.00   0.00   0.00
  16   6     0.00   0.00   0.00     0.00  -0.00  -0.00    -0.00  -0.00  -0.00
  17   6     0.00  -0.00  -0.00     0.00  -0.00  -0.00     0.01  -0.01  -0.01
  18   6     0.00   0.00  -0.00     0.00  -0.00  -0.00    -0.00  -0.00  -0.00
  19   6     0.00   0.00   0.00    -0.00  -0.00  -0.00     0.00   0.00   0.00
  20   6    -0.00  -0.00  -0.00    -0.00  -0.00  -0.00     0.00   0.00   0.00
  21   6    -0.00   0.00  -0.00     0.00   0.00  -0.00     0.00  -0.00   0.00
  22   6     0.00   0.00   0.00    -0.00  -0.00  -0.00    -0.00  -0.00  -0.00
  23   6    -0.00  -0.00  -0.00     0.00   0.00   0.00    -0.00  -0.00  -0.00
  24   6     0.00   0.00  -0.00     0.00   0.00  -0.00    -0.00  -0.00   0.00
  25   6     0.00  -0.00  -0.00     0.00  -0.00  -0.00     0.00  -0.00  -0.00
  26   6     0.00  -0.00  -0.00     0.00  -0.00  -0.00     0.00  -0.00  -0.00
  27   6    -0.00   0.00  -0.00    -0.00   0.00   0.00     0.00   0.00  -0.00
  28   6     0.00  -0.00  -0.00     0.00  -0.00  -0.00     0.00  -0.00   0.00
  29   6     0.00  -0.00  -0.00     0.00  -0.00  -0.00     0.00  -0.00  -0.00
  30   6     0.00   0.00  -0.00     0.00   0.00  -0.00    -0.00  -0.00   0.00
  31   6     0.00  -0.00   0.00     0.00  -0.00   0.00     0.00  -0.00  -0.00
  32   6     0.00   0.00   0.00    -0.00   0.00  -0.00    -0.00  -0.00  -0.00
  33   6     0.00   0.00  -0.00     0.00   0.00   0.00    -0.00   0.00  -0.00
  34   6     0.00  -0.00  -0.00     0.00  -0.00  -0.00    -0.00   0.00   0.00
  35   6    -0.00  -0.00  -0.00    -0.00  -0.00  -0.00     0.00   0.00   0.00
  36   6    -0.00   0.00  -0.00    -0.00   0.00  -0.00     0.00  -0.00   0.00
  37   6     0.00   0.00  -0.00     0.00   0.00  -0.00     0.00   0.00  -0.00
  38   6     0.00   0.00  -0.00     0.00   0.00  -0.00    -0.00  -0.00   0.00
  39   6     0.00   0.00   0.00     0.00  -0.00   0.00    -0.00   0.00  -0.00
  40   6    -0.00  -0.00   0.00    -0.00  -0.00   0.00     0.00   0.00  -0.00
  41   6     0.00   0.00  -0.00     0.00   0.00  -0.00     0.00   0.00  -0.00
  42   6    -0.00   0.00  -0.00     0.00  -0.00  -0.00     0.00  -0.00  -0.00
  43   6     0.00  -0.00  -0.00     0.00  -0.00  -0.00     0.00  -0.00  -0.00
  44   6     0.00  -0.00  -0.00    -0.00   0.00   0.00     0.00  -0.00  -0.00
  45   6    -0.00   0.00   0.00    -0.00   0.00   0.00    -0.00   0.00  -0.00
  46   6     0.00  -0.00  -0.00     0.00  -0.00  -0.00    -0.00   0.00   0.00
  47   6     0.00  -0.00  -0.00     0.00  -0.00  -0.00    -0.00   0.00   0.00
  48   6    -0.00  -0.00  -0.00    -0.00   0.00  -0.00     0.00   0.00  -0.00
  49   6     0.00   0.00  -0.00    -0.00  -0.00   0.00     0.00   0.00  -0.00
  50   6     0.00   0.00  -0.00    -0.00   0.00   0.00     0.00   0.00  -0.00
  51   6     0.00   0.00   0.00     0.00  -0.00  -0.00     0.00  -0.00  -0.00
  52   6     0.00   0.00  -0.00    -0.00  -0.00   0.00    -0.00  -0.00   0.00
  53   6     0.00   0.00  -0.00     0.00   0.00   0.00     0.00   0.00   0.00
  54   6    -0.00  -0.00  -0.00     0.00  -0.00  -0.00     0.00   0.00  -0.00
  55   6     0.00   0.00  -0.00    -0.00  -0.00   0.00     0.00   0.00  -0.00
  56   6     0.00  -0.00  -0.00    -0.00   0.00   0.00     0.00  -0.00  -0.00
  57   6     0.00   0.00   0.00     0.00  -0.00   0.00     0.00  -0.00   0.00
  58   6     0.00   0.00  -0.00    -0.00  -0.00   0.00    -0.00  -0.00   0.00
  59   6     0.00  -0.00  -0.00     0.00   0.00   0.00    -0.00   0.00   0.00
  60   6    -0.00  -0.00   0.00    -0.00   0.00  -0.00    -0.00   0.00  -0.00
  61   6     0.00   0.00   0.00    -0.00  -0.00  -0.00    -0.00  -0.00   0.00
  62   6     0.00  -0.00   0.00     0.00  -0.00  -0.00     0.00  -0.00   0.00
  63   6    -0.00   0.00  -0.00     0.00  -0.00  -0.00    -0.00  -0.00   0.00
  64   6     0.00   0.00   0.00    -0.00  -0.00  -0.00    -0.00  -0.00  -0.00
  65   6     0.00  -0.00   0.00     0.00   0.00   0.00    -0.00   0.00   0.00
  66   6    -0.00  -0.00   0.00    -0.00  -0.00  -0.00    -0.00   0.00  -0.00
  67   6     0.00   0.00  -0.00    -0.00   0.00   0.00     0.00   0.00  -0.00
  68   6    -0.00   0.00   0.00     0.00  -0.00  -0.00     0.00  -0.00  -0.00
  69   6    -0.00   0.00  -0.00    -0.00   0.00   0.00    -0.00  -0.00   0.00
  70   6     0.00   0.00  -0.00     0.00  -0.00  -0.00     0.00   0.00  -0.00
  71   6     0.00  -0.00  -0.00     0.00  -0.00   0.00     0.00  -0.00   0.00
  72   6    -0.00  -0.00   0.00    -0.00  -0.00   0.00    -0.00   0.00   0.00
  73   6     0.00   0.00   0.00     0.00  -0.00   0.00    -0.00   0.00   0.00
  74   6     0.00   0.00  -0.00     0.00   0.00  -0.00    -0.00  -0.00   0.00
  75   6    -0.00   0.00  -0.00    -0.00  -0.00  -0.00    -0.00  -0.00   0.00
  76   6    -0.00   0.00  -0.00     0.00  -0.00   0.00     0.00  -0.00   0.00
  77   6    -0.00  -0.00   0.00     0.00   0.00  -0.00     0.00   0.00  -0.00
  78   6     0.00  -0.00   0.00    -0.00  -0.00  -0.00    -0.00   0.00   0.00
  79   6    -0.00  -0.00   0.00    -0.00  -0.00   0.00    -0.00  -0.00   0.00
  80   6    -0.00  -0.00  -0.00     0.00  -0.00  -0.00    -0.00  -0.00  -0.00
  81   6     0.00   0.00  -0.00     0.00  -0.00   0.00     0.00   0.00   0.00
  82   6     0.00   0.00  -0.00    -0.00  -0.00   0.00    -0.00  -0.00   0.00
  83   6    -0.00  -0.00  -0.00    -0.00   0.00   0.00    -0.00  -0.00  -0.00
  84   6     0.00   0.00   0.00    -0.00   0.00   0.00     0.00   0.00   0.00
  85   6     0.00  -0.00  -0.00     0.00  -0.00   0.00     0.00  -0.00   0.00
  86   6     0.00  -0.00  -0.00     0.00  -0.00  -0.00     0.00  -0.00  -0.00
  87   6    -0.00  -0.00  -0.00     0.00   0.00   0.00     0.00   0.00   0.00
  88   6    -0.00   0.00  -0.00     0.00  -0.00   0.00     0.00  -0.00   0.00
  89   6    -0.00   0.00   0.00     0.00  -0.00  -0.00     0.00  -0.00  -0.00
  90   6     0.00  -0.00   0.00    -0.00   0.00   0.00    -0.00   0.00   0.00
  91   6     0.00  -0.00  -0.00     0.00  -0.00  -0.00     0.00  -0.00  -0.00
  92   6     0.00  -0.00  -0.00     0.00  -0.00  -0.00     0.00  -0.00  -0.00
  93   6    -0.00  -0.00  -0.00     0.00   0.00   0.00     0.00   0.00   0.00
  94   6    -0.00   0.00   0.00     0.00  -0.00  -0.00     0.00  -0.00  -0.00
  95   6    -0.00   0.00   0.00     0.00  -0.00  -0.00     0.00  -0.00  -0.00
  96   6     0.00   0.00   0.00    -0.00   0.00   0.00     0.00   0.00   0.00
  97   6    -0.00   0.00  -0.00     0.00  -0.00   0.00     0.00  -0.00   0.00
  98   6    -0.00  -0.00  -0.00    -0.00  -0.00  -0.00     0.00   0.00   0.00
  99   6    -0.00  -0.00  -0.00     0.00   0.00   0.00     0.00   0.00   0.00
 100   6     0.00  -0.00   0.00    -0.00   0.00  -0.00     0.00  -0.00   0.00
 101   6    -0.00  -0.00  -0.00    -0.00   0.00   0.00     0.00   0.00   0.00
 102   6    -0.00   0.00  -0.00     0.00  -0.00   0.00     0.00   0.00   0.00
 103   6    -0.00   0.00  -0.00    -0.00  -0.00   0.00     0.00  -0.00   0.00
 104   6    -0.00  -0.00   0.00     0.00   0.00  -0.00     0.00   0.00  -0.00
 105   6     0.00   0.00   0.00    -0.00  -0.00  -0.00     0.00   0.00   0.00
 106   6     0.00  -0.00   0.03    -0.00   0.00  -0.00     0.00  -0.00   0.00
 107   6    -0.00  -0.00   0.00     0.00   0.00  -0.00    -0.00  -0.00   0.00
 108   6    -0.00   0.00  -0.00     0.00   0.00   0.00     0.00   0.00   0.00
 109   6    -0.02  -0.14   0.04     0.00   0.00  -0.00     0.00   0.00  -0.00
 110   6     0.06  -0.10   0.20    -0.00   0.00  -0.00    -0.00   0.00  -0.00
 111   6     0.00   0.00   0.01    -0.00  -0.00  -0.00    -0.00   0.00   0.00
 112   6     0.00   0.01  -0.01     0.00   0.00  -0.00    -0.00  -0.00   0.00
 113   6    -0.00   0.00  -0.01    -0.00   0.00  -0.00     0.00  -0.00   0.00
 114   6    -0.00  -0.00  -0.00    -0.00  -0.00  -0.00     0.00   0.00   0.00
 115   6     0.00  -0.00   0.00     0.00   0.00  -0.00    -0.00  -0.00   0.00
 116   6    -0.00   0.00  -0.00    -0.00   0.00  -0.00     0.00  -0.00   0.00
 117   6    -0.00   0.00   0.00     0.00   0.00   0.00    -0.00  -0.00  -0.00
 118   6    -0.00  -0.01   0.02     0.00   0.00  -0.00     0.00   0.00  -0.00
 119   6     0.01  -0.02   0.01    -0.00   0.00  -0.00    -0.00   0.00  -0.00
 120   6     0.00  -0.00   0.00    -0.00   0.00  -0.00     0.00  -0.00   0.00
 121   1    -0.00  -0.00  -0.00    -0.00  -0.00  -0.00     0.00   0.01   0.00
 122   1     0.00  -0.00   0.00    -0.00   0.00  -0.00    -0.00   0.00  -0.00
 123   1     0.00   0.00   0.00     0.00   0.01   0.00    -0.00  -0.00  -0.00
 124   1    -0.00   0.00  -0.00    -0.00   0.00  -0.00     0.00  -0.00   0.00
 125   1     0.00  -0.01   0.00    -0.07   0.11  -0.04     0.01  -0.02   0.01
 126   1    -0.01   0.01   0.01    -0.70   0.38   0.50     0.11  -0.06  -0.08
 127   1    -0.00   0.00  -0.00    -0.06   0.12  -0.04    -0.42   0.81  -0.24
 128   1     0.00  -0.00  -0.00    -0.01   0.00   0.01    -0.07   0.05   0.06
 129   1    -0.00  -0.00  -0.00     0.00   0.04   0.01    -0.00   0.00   0.00
 130   1     0.00  -0.00  -0.00    -0.00   0.00   0.00     0.00  -0.00  -0.00
 131   1    -0.00  -0.00  -0.00     0.00   0.00   0.00     0.00   0.01   0.00
 132   1    -0.00   0.00   0.00    -0.01   0.01   0.02    -0.02   0.02   0.04
 133   1    -0.00  -0.00  -0.00     0.00   0.00   0.00    -0.00  -0.00  -0.00
 134   1     0.00   0.00   0.00     0.00   0.00   0.00    -0.00  -0.00  -0.00
 135   1    -0.00  -0.00  -0.00     0.00   0.00   0.00     0.00   0.00   0.00
 136   1     0.00   0.00   0.00    -0.00  -0.00  -0.00     0.00   0.00   0.00
 137   1    -0.00   0.00   0.00    -0.00   0.00   0.00    -0.00   0.00   0.00
 138   1    -0.00   0.00   0.00    -0.00   0.00   0.00    -0.00   0.00   0.00
 139   1    -0.00   0.00  -0.00    -0.00   0.00   0.00    -0.00   0.00   0.00
 140   1    -0.00   0.00   0.00    -0.00   0.00   0.00     0.00   0.00   0.00
 141   1    -0.00   0.00  -0.00    -0.00   0.00  -0.00    -0.00   0.00   0.00
 142   1    -0.00  -0.00  -0.00    -0.00  -0.00  -0.00     0.00   0.00   0.00
 143   1    -0.00   0.00   0.00    -0.00   0.00   0.00     0.00  -0.00  -0.00
 144   1     0.00   0.00   0.00     0.00   0.00   0.00    -0.00  -0.00  -0.00
 145   1    -0.00  -0.00   0.00    -0.00  -0.00   0.00    -0.00  -0.00   0.00
 146   1    -0.00  -0.00   0.00    -0.00  -0.00   0.00     0.00   0.00  -0.00
 147   1     0.00   0.00  -0.00     0.00   0.00  -0.00    -0.00  -0.00   0.00
 148   1    -0.00  -0.00   0.00    -0.00  -0.00   0.00    -0.00  -0.00   0.00
 149   1    -0.00   0.00   0.00    -0.00   0.00   0.00    -0.00   0.00   0.00
 150   1    -0.00   0.00   0.00     0.00  -0.00  -0.00    -0.00   0.00   0.00
 151   1    -0.00   0.00   0.00    -0.00   0.00   0.00     0.00  -0.00  -0.00
 152   1    -0.00   0.00   0.00    -0.00   0.00   0.00     0.00  -0.00  -0.00
 153   1    -0.00  -0.00   0.00     0.00   0.00  -0.00    -0.00  -0.00   0.00
 154   1    -0.00   0.00   0.00     0.00  -0.00  -0.00    -0.00   0.00   0.00
 155   1    -0.00  -0.00   0.00     0.00   0.00  -0.00     0.00   0.00  -0.00
 156   1    -0.00   0.00   0.00     0.00  -0.00  -0.00     0.00  -0.00   0.00
 157   1    -0.00  -0.00   0.00     0.00   0.00  -0.00    -0.00  -0.00   0.00
 158   1    -0.00   0.00   0.00     0.00  -0.00  -0.00    -0.00   0.00   0.00
 159   1    -0.00  -0.00   0.00     0.00   0.00  -0.00     0.00   0.00  -0.00
 160   1    -0.00   0.00   0.00     0.00   0.00   0.00     0.00  -0.00  -0.00
 161   1    -0.00  -0.00  -0.00     0.00   0.00   0.00     0.00   0.00   0.00
 162   1    -0.00   0.00  -0.00    -0.00   0.00  -0.00    -0.00   0.00  -0.00
 163   1    -0.00  -0.00  -0.00     0.00   0.00   0.00     0.00   0.00   0.00
 164   1    -0.00   0.00  -0.00    -0.00   0.00  -0.00     0.00  -0.00   0.00
 165   1    -0.00  -0.00   0.00     0.00   0.00  -0.00    -0.00  -0.00   0.00
 166   1     0.00  -0.00  -0.00    -0.00   0.00   0.00    -0.00   0.00   0.00
 167   1    -0.00  -0.00   0.00    -0.00  -0.00   0.00    -0.00  -0.00   0.00
 168   1    -0.00   0.00   0.00    -0.00   0.00   0.00    -0.00   0.00   0.00
 169   1    -0.00  -0.00   0.00    -0.00   0.00  -0.00     0.00   0.00   0.00
 170   1    -0.00  -0.00   0.00    -0.00  -0.00   0.00     0.00   0.00   0.00
 171   1     0.00  -0.00   0.00    -0.00   0.00  -0.00    -0.00   0.00  -0.00
 172   1     0.00   0.00  -0.00    -0.00  -0.00   0.00    -0.00  -0.00   0.00
 173   1     0.00   0.00  -0.00     0.00   0.00  -0.00     0.00   0.00  -0.00
 174   1     0.00   0.00   0.00    -0.00  -0.00  -0.00     0.00   0.00   0.00
 175   1    -0.00  -0.00   0.00     0.00   0.00  -0.00     0.00   0.00  -0.00
 176   1     0.00   0.00   0.00    -0.00  -0.00  -0.00     0.00   0.00   0.00
 177   1    -0.00   0.00  -0.00    -0.00   0.00  -0.00    -0.00   0.00  -0.00
 178   1    -0.00   0.00   0.00    -0.00   0.00   0.00    -0.00   0.00   0.00
 179   1     0.00  -0.00   0.00    -0.00   0.00  -0.00    -0.00   0.00  -0.00
 180   1     0.00  -0.00  -0.00    -0.00   0.00   0.00    -0.00   0.00   0.00
 181   1     0.00  -0.00   0.00    -0.00   0.00   0.00    -0.00   0.00   0.00
 182   1    -0.00   0.00   0.00    -0.00   0.00   0.00    -0.00   0.00   0.00
 183   1     0.00  -0.00  -0.00    -0.00   0.00   0.00    -0.00   0.00   0.00
 184   1     0.00  -0.00  -0.00    -0.00   0.00   0.00    -0.00   0.00   0.00
 185   1     0.00  -0.00   0.00    -0.00   0.00  -0.00    -0.00   0.00  -0.00
 186   1     0.00   0.00   0.00     0.00   0.00   0.00    -0.00  -0.00  -0.00
 187   1    -0.00   0.00  -0.00     0.00  -0.00   0.00    -0.00   0.00  -0.00
 188   1     0.00   0.00   0.00    -0.00  -0.00  -0.00    -0.00  -0.00  -0.00
 189   1     0.00  -0.00   0.00    -0.00   0.00  -0.00    -0.00   0.00  -0.00
 190   1     0.00   0.00  -0.00    -0.00  -0.00   0.00    -0.00  -0.00   0.00
 191   1    -0.00   0.01  -0.12     0.00  -0.00   0.01    -0.00   0.00  -0.00
 192   1     0.01   0.01  -0.01    -0.00  -0.00   0.00    -0.00   0.00  -0.00
 193   1     0.08   0.47  -0.13    -0.00  -0.01   0.00    -0.00  -0.00   0.00
 194   1    -0.22   0.33  -0.70     0.00  -0.01   0.01     0.00  -0.00   0.00
 195   1    -0.01  -0.04   0.01    -0.00  -0.01   0.00    -0.00   0.00  -0.00
 196   1     0.01  -0.01   0.02     0.01  -0.01   0.02    -0.00   0.00  -0.00
 197   1     0.00   0.00  -0.00    -0.00  -0.00   0.00     0.00   0.00  -0.00
 198   1     0.01  -0.01   0.00     0.00  -0.00   0.00    -0.00   0.00  -0.00
 199   1     0.01   0.04  -0.06    -0.00  -0.00   0.00    -0.00  -0.00   0.00
 200   1    -0.03   0.07  -0.02     0.00  -0.00   0.00     0.00  -0.00   0.00
