 Entering Gaussian System
 *********************************************
 Gaussian 98:
 frequency output generated by the xtb code
 *********************************************
                         Standard orientation:
 --------------------------------------------------------------------
  Center     Atomic     Atomic              Coordinates (Angstroms)
  Number     Number      Type              X           Y           Z
 --------------------------------------------------------------------
    1          6             0        3.374067    0.198841   -0.990327
    2          6             0        3.152710    0.563457    0.342899
    3          6             0        2.160910    1.515878    0.661229
    4          6             0        1.751573    2.364167   -0.388788
    5          6             0        1.926398    1.963752   -1.718650
    6          6             0        2.565040    0.739622   -2.011461
    7          6             0       -0.079670    1.748451    1.799307
    8          6             0       -1.113697    0.956485    2.301455
    9          6             0       -0.829089   -0.295104    2.879933
   10          6             0        0.497559   -0.520190    3.296581
   11          6             0        1.536599    0.271191    2.785442
   12          6             0        1.255497    1.291919    1.850477
   13          6             0       -1.151292   -2.661012    2.141270
   14          6             0       -1.722905   -3.380151    1.090462
   15          6             0       -2.882068   -2.896096    0.453635
   16          6             0       -3.651396   -1.943529    1.150368
   17          6             0       -3.080138   -1.225166    2.210793
   18          6             0       -1.735144   -1.451894    2.569283
   19          6             0       -2.279029   -3.998263   -1.731309
   20          6             0       -1.538585   -3.707723   -2.886388
   21          6             0       -1.449881   -2.378209   -3.348393
   22          6             0       -2.428658   -1.472848   -2.891932
   23          6             0       -3.170775   -1.764186   -1.746297
   24          6             0       -2.939489   -2.961946   -1.042452
   25          6             0        1.051379   -2.384479   -3.305731
   26          6             0        2.120702   -1.558409   -2.955405
   27          6             0        2.013298   -0.157494   -3.095426
   28          6             0        1.016440    0.312488   -3.978861
   29          6             0       -0.054417   -0.519180   -4.337665
   30          6             0       -0.134794   -1.826504   -3.819307
   31          1             0        4.036232   -0.633537   -1.179738
   32          1             0        3.630577   -0.035147    1.103654
   33          1             0        1.133793    3.230691   -0.202602
   34          1             0        1.401335    2.526052   -2.475987
   35          1             0       -0.369593    2.598033    1.200681
   36          1             0       -2.123070    1.235432    2.032364
   37          1             0        0.754609   -1.410357    3.856190
   38          1             0        2.551673   -0.035256    2.992492
   39          1             0       -0.148079   -2.935984    2.436330
   40          1             0       -1.122430   -4.159875    0.641145
   41          1             0       -4.600732   -1.609225    0.751216
   42          1             0       -3.616403   -0.369470    2.600106
   43          1             0       -2.160566   -4.971646   -1.272168
   44          1             0       -0.884763   -4.473022   -3.284127
   45          1             0       -2.466982   -0.455699   -3.256682
   46          1             0       -3.729724   -0.952504   -1.299998
   47          1             0        1.089628   -3.410373   -2.966412
   48          1             0        2.920049   -2.015989   -2.393386
   49          1             0        0.958744    1.355317   -4.255153
   50          1             0       -0.897681   -0.080023   -4.855043
 --------------------------------------------------------------------
     1 basis functions        1 primitive gaussians
     1 alpha electrons        1 beta electrons
 
 Harmonic frequencies (cm**-1), IR intensities (km*mol⁻¹),
 Raman scattering activities (A**4/amu), Raman depolarization ratios,
 reduced masses (AMU), force constants (mDyne/A) and normal coordinates:
                      1                      2                      3
                        a                      a                      a 
 Frequencies --    74.2034                74.5194                97.7074
 Red. masses --    11.2720                11.2773                10.1015
 Frc consts  --     0.0000                 0.0000                 0.0000
 IR Inten    --     0.0254                 0.0033                 0.0108
 Raman Activ --     0.0000                 0.0000                 0.0000
 Depolar     --     0.0000                 0.0000                 0.0000
 Atom AN      X      Y      Z        X      Y      Z        X      Y      Z
   1   6     0.04  -0.00  -0.11    -0.17  -0.13   0.02    -0.10  -0.24   0.07
   2   6    -0.05  -0.07  -0.10    -0.16  -0.12   0.02    -0.10  -0.24   0.06
   3   6    -0.09  -0.10  -0.12    -0.13  -0.09   0.03     0.06  -0.06   0.04
   4   6    -0.04  -0.06  -0.10    -0.16  -0.12   0.02     0.27   0.04   0.04
   5   6     0.05   0.01  -0.11    -0.17  -0.13   0.02     0.26   0.04   0.04
   6   6     0.09   0.03  -0.13    -0.14  -0.11   0.01     0.05  -0.07   0.04
   7   6    -0.11  -0.13  -0.13    -0.04   0.04   0.19    -0.03  -0.01  -0.20
   8   6    -0.10  -0.09  -0.05    -0.03   0.07   0.24    -0.05   0.02  -0.21
   9   6    -0.10  -0.05   0.05    -0.02   0.05   0.21    -0.06   0.09  -0.03
  10   6    -0.08  -0.04  -0.01    -0.01   0.05   0.19    -0.10   0.18   0.12
  11   6    -0.09  -0.08  -0.09    -0.02   0.03   0.14    -0.07   0.15   0.14
  12   6    -0.11  -0.12  -0.13    -0.05  -0.00   0.11    -0.02   0.04  -0.01
  13   6    -0.14  -0.08   0.20     0.08   0.09   0.07     0.08   0.08   0.00
  14   6    -0.11  -0.07   0.18     0.14   0.13   0.01     0.12   0.02   0.02
  15   6    -0.06  -0.01   0.11     0.16   0.13  -0.02     0.07  -0.07   0.03
  16   6    -0.09  -0.03   0.11     0.11   0.09  -0.02     0.02  -0.11   0.02
  17   6    -0.12  -0.05   0.14     0.04   0.05   0.05    -0.02  -0.05  -0.00
  18   6    -0.12  -0.05   0.15     0.02   0.05   0.12    -0.00   0.04  -0.01
  19   6     0.08   0.10   0.10     0.10   0.07  -0.01     0.10  -0.04   0.01
  20   6     0.09   0.11   0.11     0.04   0.01  -0.07     0.05   0.01  -0.01
  21   6     0.10   0.11   0.12     0.03  -0.02  -0.14    -0.04   0.01  -0.01
  22   6     0.15   0.14   0.17     0.08   0.02  -0.11    -0.09  -0.05   0.01
  23   6     0.13   0.12   0.15     0.15   0.09  -0.05    -0.05  -0.10   0.03
  24   6     0.06   0.08   0.11     0.16   0.11  -0.02     0.05  -0.08   0.03
  25   6     0.11   0.06  -0.10     0.02  -0.07  -0.23    -0.02   0.04  -0.21
  26   6     0.15   0.05  -0.18    -0.01  -0.07  -0.16     0.00   0.01  -0.20
  27   6     0.13   0.05  -0.16    -0.05  -0.06  -0.08    -0.03   0.03  -0.01
  28   6     0.10   0.05  -0.13    -0.00  -0.04  -0.12    -0.12   0.12   0.14
  29   6     0.07   0.06  -0.05     0.02  -0.04  -0.19    -0.13   0.15   0.12
  30   6     0.08   0.08   0.00     0.02  -0.06  -0.21    -0.08   0.08  -0.03
  31   1     0.02   0.00  -0.03    -0.05  -0.04   0.01    -0.07  -0.11   0.03
  32   1    -0.03  -0.03  -0.03    -0.05  -0.04   0.00    -0.08  -0.10   0.02
  33   1    -0.02  -0.02  -0.03    -0.05  -0.04   0.01     0.12   0.04   0.01
  34   1     0.02   0.01  -0.03    -0.05  -0.04   0.01     0.12   0.05   0.01
  35   1    -0.04  -0.05  -0.05    -0.01   0.01   0.06     0.00  -0.03  -0.10
  36   1    -0.03  -0.03  -0.01    -0.01   0.03   0.08    -0.01  -0.02  -0.10
  37   1    -0.02  -0.00   0.01    -0.00   0.02   0.06    -0.04   0.07   0.07
  38   1    -0.03  -0.02  -0.03    -0.00   0.01   0.03    -0.02   0.06   0.08
  39   1    -0.05  -0.03   0.07     0.02   0.03   0.03     0.03   0.05  -0.00
  40   1    -0.03  -0.02   0.06     0.05   0.05  -0.00     0.05   0.02   0.01
  41   1    -0.02  -0.00   0.02     0.04   0.03  -0.01    -0.00  -0.05   0.01
  42   1    -0.04  -0.01   0.04     0.00   0.00   0.02    -0.02  -0.02  -0.00
  43   1     0.02   0.02   0.02     0.03   0.03   0.01     0.05  -0.01   0.00
  44   1     0.02   0.03   0.03    -0.00  -0.01  -0.02     0.02   0.01  -0.01
  45   1     0.05   0.04   0.06     0.02   0.00  -0.04    -0.05  -0.02   0.00
  46   1     0.04   0.04   0.05     0.06   0.03  -0.01    -0.03  -0.04   0.01
  47   1     0.04   0.02  -0.03     0.01  -0.03  -0.08     0.01  -0.00  -0.10
  48   1     0.05   0.01  -0.07    -0.00  -0.02  -0.05     0.02  -0.02  -0.11
  49   1     0.03   0.01  -0.04    -0.00  -0.01  -0.02    -0.05   0.04   0.08
  50   1     0.01   0.02  -0.00     0.01  -0.01  -0.06    -0.05   0.06   0.07
                      4                      5                      6
                        a                      a                      a 
 Frequencies --   105.6850               157.1104               157.6630
 Red. masses --    10.2869                10.3256                10.3949
 Frc consts  --     0.0000                 0.0000                 0.0000
 IR Inten    --     0.0196                 0.0284                 0.0591
 Raman Activ --     0.0000                 0.0000                 0.0000
 Depolar     --     0.0000                 0.0000                 0.0000
 Atom AN      X      Y      Z        X      Y      Z        X      Y      Z
   1   6     0.01   0.03  -0.07     0.05   0.05  -0.03    -0.14  -0.04   0.07
   2   6     0.05  -0.03  -0.05     0.06   0.01  -0.02    -0.02   0.05   0.06
   3   6     0.06  -0.04   0.02     0.04  -0.01  -0.01     0.07   0.14   0.07
   4   6     0.04   0.00   0.07     0.07   0.04   0.02     0.07   0.13   0.06
   5   6    -0.01   0.06   0.05     0.03   0.05   0.02    -0.04   0.04   0.06
   6   6    -0.03   0.07  -0.03    -0.01   0.04   0.00    -0.15  -0.03   0.09
   7   6     0.13   0.05   0.15    -0.04  -0.21  -0.23     0.04   0.07  -0.02
   8   6     0.08   0.09   0.13    -0.01  -0.18  -0.16     0.05  -0.00  -0.12
   9   6    -0.00   0.02   0.02     0.02  -0.06   0.08     0.05  -0.02  -0.15
  10   6     0.00  -0.12  -0.06     0.02   0.03   0.12     0.04   0.01  -0.11
  11   6     0.05  -0.17  -0.05     0.00   0.03   0.06     0.04   0.08   0.01
  12   6     0.09  -0.07   0.04    -0.01  -0.08  -0.05     0.06   0.13   0.06
  13   6    -0.20  -0.01   0.14    -0.08  -0.12   0.25    -0.14  -0.18   0.17
  14   6    -0.19  -0.03   0.15    -0.02  -0.03   0.15    -0.16  -0.24   0.21
  15   6    -0.07   0.04   0.00     0.13   0.11  -0.01    -0.01  -0.11   0.04
  16   6    -0.03   0.18  -0.13     0.12   0.14  -0.05     0.03   0.03  -0.09
  17   6    -0.04   0.20  -0.15     0.04   0.04   0.05     0.05   0.08  -0.15
  18   6    -0.09   0.09  -0.01    -0.01  -0.07   0.18     0.02  -0.02  -0.07
  19   6     0.18  -0.06   0.12     0.17   0.08   0.03    -0.05  -0.03  -0.09
  20   6     0.20  -0.08   0.13     0.04   0.02  -0.06    -0.10  -0.04  -0.14
  21   6     0.07  -0.11   0.01    -0.08  -0.01  -0.18     0.01  -0.02  -0.06
  22   6    -0.08  -0.20  -0.12    -0.15  -0.06  -0.23     0.23   0.10   0.15
  23   6    -0.09  -0.18  -0.13    -0.04  -0.01  -0.14     0.29   0.11   0.18
  24   6     0.02  -0.08   0.00     0.15   0.09  -0.01     0.11  -0.02   0.03
  25   6     0.10   0.05  -0.15    -0.16   0.04   0.17    -0.02  -0.06  -0.12
  26   6     0.06   0.10  -0.17    -0.19   0.03   0.25    -0.08  -0.03  -0.01
  27   6    -0.05   0.10  -0.05    -0.08   0.02   0.06    -0.13  -0.02   0.07
  28   6    -0.15   0.09   0.06     0.02  -0.01  -0.06    -0.09  -0.02   0.02
  29   6    -0.11   0.04   0.06     0.02   0.00  -0.13    -0.03  -0.04  -0.10
  30   6     0.01  -0.01  -0.02    -0.06   0.03  -0.09    -0.01  -0.07  -0.15
  31   1     0.00   0.01  -0.04     0.02   0.02  -0.02    -0.06  -0.03   0.02
  32   1     0.02  -0.02  -0.03     0.01  -0.00  -0.01    -0.01   0.01   0.02
  33   1     0.01   0.00   0.04     0.03   0.02   0.02     0.05   0.05   0.02
  34   1    -0.01   0.03   0.03     0.00   0.02   0.01    -0.01   0.01   0.02
  35   1     0.05   0.04   0.07    -0.02  -0.10  -0.12     0.01   0.03   0.00
  36   1     0.03   0.06   0.06    -0.00  -0.08  -0.08     0.02  -0.01  -0.05
  37   1    -0.01  -0.05  -0.03     0.01   0.03   0.06     0.01  -0.00  -0.04
  38   1     0.01  -0.08  -0.04     0.00   0.03   0.04     0.01   0.03   0.02
  39   1    -0.08  -0.03   0.07    -0.04  -0.07   0.11    -0.06  -0.09   0.09
  40   1    -0.07  -0.04   0.08    -0.01  -0.02   0.06    -0.07  -0.11   0.10
  41   1     0.01   0.07  -0.06     0.05   0.06  -0.04     0.02   0.02  -0.05
  42   1     0.00   0.08  -0.07     0.01   0.02   0.01     0.03   0.05  -0.07
  43   1     0.07  -0.01   0.06     0.08   0.04   0.03    -0.03  -0.02  -0.05
  44   1     0.09  -0.01   0.07     0.02   0.01  -0.01    -0.06  -0.02  -0.07
  45   1    -0.06  -0.07  -0.06    -0.08  -0.03  -0.10     0.11   0.04   0.08
  46   1    -0.06  -0.06  -0.07    -0.03  -0.01  -0.06     0.14   0.05   0.09
  47   1     0.06   0.01  -0.07    -0.07   0.02   0.08    -0.00  -0.02  -0.05
  48   1     0.04   0.03  -0.08    -0.09   0.01   0.12    -0.03  -0.01   0.00
  49   1    -0.07   0.03   0.04     0.02  -0.01  -0.04    -0.03  -0.00   0.02
  50   1    -0.05   0.00   0.04     0.03   0.00  -0.07    -0.00  -0.02  -0.04
                      7                      8                      9
                        a                      a                      a 
 Frequencies --   174.4619               185.8938               197.6574
 Red. masses --    10.2981                10.3368                10.0826
 Frc consts  --     0.0000                 0.0000                 0.0000
 IR Inten    --     0.0135                 0.0049                 0.0792
 Raman Activ --     0.0000                 0.0000                 0.0000
 Depolar     --     0.0000                 0.0000                 0.0000
 Atom AN      X      Y      Z        X      Y      Z        X      Y      Z
   1   6     0.09  -0.03  -0.04     0.06   0.10  -0.15    -0.23  -0.15  -0.02
   2   6     0.04  -0.07  -0.04     0.12  -0.06  -0.10    -0.33  -0.22  -0.04
   3   6     0.01  -0.10  -0.04     0.11  -0.11   0.04    -0.13   0.00  -0.07
   4   6     0.00  -0.10  -0.04     0.13   0.04   0.14     0.20   0.18  -0.05
   5   6     0.05  -0.06  -0.04    -0.02   0.13   0.09     0.30   0.26  -0.08
   6   6     0.09  -0.03  -0.05    -0.08   0.14  -0.04     0.02   0.12  -0.08
   7   6     0.06   0.15   0.14     0.10  -0.10  -0.08    -0.08   0.04   0.13
   8   6    -0.02   0.22   0.14     0.00   0.03  -0.08    -0.02   0.02   0.24
   9   6    -0.12   0.14  -0.00    -0.12   0.07   0.05     0.04  -0.05   0.07
  10   6    -0.12   0.00  -0.05    -0.14  -0.03   0.08     0.08  -0.07  -0.07
  11   6    -0.06  -0.11  -0.09    -0.05  -0.20   0.01     0.01  -0.01  -0.09
  12   6     0.00  -0.04  -0.03     0.06  -0.19  -0.01    -0.09   0.03  -0.04
  13   6    -0.01   0.09   0.12     0.04   0.20  -0.06     0.01  -0.06  -0.02
  14   6     0.12  -0.05   0.14     0.13   0.19  -0.09    -0.01  -0.02  -0.03
  15   6     0.13  -0.18   0.03     0.03   0.04  -0.00     0.00   0.02  -0.03
  16   6     0.03  -0.17  -0.08    -0.08  -0.07   0.03     0.05   0.06  -0.02
  17   6    -0.07   0.02  -0.16    -0.15  -0.02   0.05     0.07   0.01   0.00
  18   6    -0.09   0.12  -0.05    -0.13   0.09   0.03     0.05  -0.05   0.02
  19   6     0.15  -0.07  -0.09    -0.09  -0.06  -0.01    -0.07  -0.04  -0.02
  20   6    -0.01   0.06  -0.17    -0.06  -0.14  -0.03    -0.02  -0.06   0.01
  21   6    -0.10   0.11  -0.05     0.05  -0.15  -0.03     0.03  -0.06   0.02
  22   6    -0.07   0.04   0.12     0.21  -0.01   0.04     0.05  -0.03  -0.02
  23   6     0.03  -0.12   0.14     0.22   0.08   0.06     0.02   0.00  -0.03
  24   6     0.15  -0.17   0.03     0.05   0.02  -0.00    -0.03   0.00  -0.02
  25   6    -0.20   0.08   0.15     0.04  -0.00   0.08     0.01   0.04   0.24
  26   6    -0.14  -0.01   0.16    -0.06   0.12   0.08    -0.01   0.10   0.13
  27   6     0.03  -0.02  -0.03    -0.17   0.11   0.02    -0.01   0.09  -0.05
  28   6     0.12   0.02  -0.10    -0.20   0.01   0.01    -0.00  -0.02  -0.09
  29   6     0.02   0.11  -0.06    -0.07  -0.13  -0.07     0.04  -0.10  -0.07
  30   6    -0.10   0.15  -0.00     0.04  -0.14  -0.04     0.04  -0.05   0.07
  31   1     0.04   0.00  -0.01     0.03   0.05  -0.08    -0.11  -0.08   0.00
  32   1     0.02  -0.02  -0.01     0.05  -0.04  -0.05    -0.16  -0.12  -0.01
  33   1    -0.01  -0.04  -0.01     0.06   0.02   0.08     0.10   0.08  -0.01
  34   1     0.01  -0.02  -0.01    -0.02   0.06   0.05     0.16   0.13  -0.03
  35   1     0.03   0.07   0.08     0.05  -0.03  -0.04    -0.04   0.02   0.05
  36   1    -0.00   0.11   0.07     0.01   0.02  -0.04    -0.02   0.02   0.12
  37   1    -0.05  -0.01  -0.02    -0.07  -0.00   0.05     0.04  -0.03  -0.05
  38   1    -0.02  -0.07  -0.05    -0.02  -0.09  -0.00     0.01   0.01  -0.04
  39   1    -0.01   0.04   0.06     0.03   0.10  -0.03     0.00  -0.03  -0.00
  40   1     0.06  -0.02   0.07     0.07   0.09  -0.05    -0.01  -0.01  -0.01
  41   1     0.00  -0.09  -0.04    -0.03  -0.05   0.01     0.02   0.03  -0.01
  42   1    -0.04   0.01  -0.09    -0.06  -0.02   0.02     0.03   0.00   0.01
  43   1     0.08  -0.03  -0.05    -0.05  -0.02  -0.00    -0.04  -0.01  -0.00
  44   1    -0.01   0.03  -0.09    -0.04  -0.06  -0.01    -0.01  -0.02   0.01
  45   1    -0.03   0.02   0.07     0.10   0.00   0.02     0.03  -0.01  -0.01
  46   1     0.01  -0.05   0.08     0.11   0.05   0.04     0.01   0.01  -0.01
  47   1    -0.10   0.03   0.08     0.03   0.01   0.04    -0.00   0.03   0.12
  48   1    -0.07  -0.01   0.08    -0.01   0.06   0.04    -0.00   0.04   0.05
  49   1     0.07   0.00  -0.06    -0.09   0.00   0.01    -0.02  -0.01  -0.04
  50   1     0.02   0.05  -0.03    -0.02  -0.07  -0.04     0.01  -0.05  -0.04
                     10                     11                     12
                        a                      a                      a 
 Frequencies --   203.2567               213.2482               248.3796
 Red. masses --    10.5368                10.5740                11.0502
 Frc consts  --     0.0000                 0.0000                 0.0000
 IR Inten    --     0.0099                 0.0273                 0.0065
 Raman Activ --     0.0000                 0.0000                 0.0000
 Depolar     --     0.0000                 0.0000                 0.0000
 Atom AN      X      Y      Z        X      Y      Z        X      Y      Z
   1   6    -0.10  -0.04  -0.10    -0.13  -0.09   0.08     0.12   0.12  -0.03
   2   6    -0.09  -0.19  -0.05    -0.00   0.01   0.07     0.14   0.14  -0.01
   3   6     0.03  -0.11   0.06     0.10   0.11   0.07     0.09   0.09   0.04
   4   6    -0.06  -0.08   0.11     0.12   0.11   0.06     0.15   0.09   0.01
   5   6    -0.20  -0.03   0.07    -0.00   0.01   0.07     0.17   0.10  -0.01
   6   6    -0.10   0.06  -0.05    -0.13  -0.06   0.09     0.11   0.06  -0.06
   7   6     0.12  -0.02  -0.03     0.07   0.10   0.05     0.04   0.05   0.13
   8   6     0.08  -0.03  -0.16     0.03   0.04  -0.07     0.03   0.05   0.14
   9   6     0.06   0.01  -0.06    -0.01  -0.00  -0.16    -0.02   0.02   0.13
  10   6    -0.01   0.11   0.20    -0.00  -0.11  -0.24    -0.01   0.12   0.18
  11   6     0.05   0.11   0.29     0.02  -0.09  -0.13     0.01   0.13   0.17
  12   6     0.12  -0.00   0.14     0.06   0.07   0.04     0.06   0.08   0.09
  13   6     0.01  -0.01  -0.12     0.01   0.04  -0.08    -0.11  -0.04   0.09
  14   6    -0.10  -0.07  -0.02    -0.02   0.03  -0.04    -0.11  -0.05   0.08
  15   6    -0.12  -0.08   0.01    -0.09  -0.01   0.06    -0.11  -0.08   0.03
  16   6    -0.03   0.02  -0.04    -0.17  -0.18   0.21    -0.11  -0.15   0.15
  17   6     0.07   0.07  -0.13    -0.13  -0.16   0.19    -0.10  -0.14   0.16
  18   6     0.07   0.02  -0.15    -0.05  -0.01  -0.02    -0.06  -0.02   0.12
  19   6     0.01  -0.03   0.04     0.24   0.13   0.18    -0.19  -0.08  -0.12
  20   6     0.09   0.05   0.12     0.21   0.10   0.17    -0.17  -0.07  -0.14
  21   6     0.05   0.07   0.14     0.02   0.05  -0.03    -0.04  -0.06  -0.11
  22   6     0.01   0.02   0.12    -0.05  -0.01  -0.08    -0.07  -0.10  -0.08
  23   6    -0.09  -0.07   0.04    -0.03   0.02  -0.04    -0.09  -0.10  -0.07
  24   6    -0.11  -0.09   0.01     0.04   0.09   0.05    -0.11  -0.08  -0.02
  25   6     0.01   0.10   0.15    -0.06  -0.02  -0.07     0.04   0.01  -0.15
  26   6     0.01   0.12   0.02    -0.10  -0.04   0.07     0.05   0.02  -0.14
  27   6     0.01   0.11  -0.15    -0.08  -0.04   0.05     0.08   0.03  -0.10
  28   6     0.10   0.00  -0.30     0.07  -0.05  -0.14     0.11  -0.04  -0.18
  29   6     0.08  -0.05  -0.20     0.08  -0.04  -0.25     0.10  -0.05  -0.19
  30   6     0.03   0.06   0.06    -0.01  -0.00  -0.16     0.00  -0.04  -0.13
  31   1    -0.02   0.00  -0.05    -0.06  -0.04   0.03     0.04   0.04   0.00
  32   1    -0.04  -0.09  -0.03     0.00   0.00   0.02     0.05   0.04  -0.01
  33   1    -0.00  -0.02   0.06     0.06   0.05   0.02     0.05   0.03  -0.01
  34   1    -0.09  -0.01   0.04    -0.00   0.00   0.02     0.06   0.04  -0.00
  35   1     0.05  -0.02  -0.03     0.03   0.05   0.04     0.01   0.01   0.04
  36   1     0.03  -0.03  -0.10     0.01   0.02  -0.02     0.01   0.02   0.04
  37   1    -0.02   0.04   0.08    -0.01  -0.05  -0.09     0.01   0.04   0.06
  38   1     0.01   0.05   0.13     0.00  -0.05  -0.05    -0.00   0.04   0.07
  39   1     0.01  -0.00  -0.05     0.02   0.04  -0.06    -0.03  -0.02   0.03
  40   1    -0.04  -0.04   0.00     0.01   0.03  -0.03    -0.03  -0.02   0.03
  41   1    -0.01   0.01  -0.00    -0.07  -0.07   0.09    -0.04  -0.05   0.06
  42   1     0.04   0.03  -0.04    -0.05  -0.06   0.08    -0.05  -0.05   0.05
  43   1     0.01  -0.01   0.00     0.09   0.05   0.07    -0.06  -0.03  -0.06
  44   1     0.04   0.03   0.04     0.08   0.03   0.07    -0.07  -0.03  -0.04
  45   1     0.00   0.01   0.05    -0.04  -0.01  -0.05    -0.03  -0.03  -0.02
  46   1    -0.05  -0.03   0.01    -0.04  -0.00  -0.03    -0.03  -0.03  -0.03
  47   1    -0.01   0.05   0.09    -0.03  -0.01  -0.02     0.02   0.00  -0.05
  48   1    -0.00   0.05   0.03    -0.05  -0.01   0.05     0.01  -0.00  -0.04
  49   1     0.04  -0.01  -0.13     0.04  -0.02  -0.05     0.03  -0.02  -0.07
  50   1     0.03  -0.03  -0.08     0.04  -0.01  -0.10     0.04  -0.01  -0.07
                     13                     14                     15
                        a                      a                      a 
 Frequencies --   296.0981               299.3446               323.5597
 Red. masses --    10.7156                10.6464                10.6934
 Frc consts  --     0.0000                 0.0000                 0.0000
 IR Inten    --     0.0185                 0.0585                 0.6002
 Raman Activ --     0.0000                 0.0000                 0.0000
 Depolar     --     0.0000                 0.0000                 0.0000
 Atom AN      X      Y      Z        X      Y      Z        X      Y      Z
   1   6     0.17   0.00  -0.11    -0.09  -0.07  -0.04     0.07   0.11  -0.06
   2   6     0.03  -0.10  -0.09    -0.12  -0.18  -0.03     0.11   0.09  -0.03
   3   6    -0.04  -0.15  -0.09     0.04  -0.04   0.01     0.03  -0.01   0.06
   4   6    -0.05  -0.17  -0.09    -0.08  -0.06   0.05     0.13   0.04   0.05
   5   6     0.08  -0.06  -0.10    -0.20  -0.07   0.05     0.11   0.09   0.01
   6   6     0.15  -0.01  -0.10    -0.03   0.04  -0.01    -0.01   0.03  -0.06
   7   6     0.01   0.13   0.13     0.12   0.16   0.03    -0.04   0.08   0.14
   8   6     0.01   0.09   0.09     0.05   0.09  -0.21    -0.10   0.05  -0.01
   9   6     0.01   0.00  -0.07    -0.01   0.08  -0.19    -0.15   0.00  -0.06
  10   6    -0.01   0.14   0.09    -0.03   0.02  -0.15    -0.20   0.04   0.09
  11   6    -0.01   0.20   0.16     0.03  -0.02  -0.05    -0.15  -0.06   0.05
  12   6     0.01   0.07   0.01     0.10   0.08   0.05    -0.05  -0.03   0.05
  13   6    -0.03  -0.11  -0.13    -0.04  -0.08   0.23     0.08  -0.18   0.04
  14   6    -0.20  -0.16  -0.01     0.07  -0.04   0.13     0.15  -0.16  -0.02
  15   6    -0.15  -0.04  -0.02     0.15   0.03   0.01     0.18  -0.06  -0.04
  16   6    -0.12  -0.09   0.08     0.03  -0.15   0.11     0.13  -0.07  -0.13
  17   6    -0.01  -0.14   0.07    -0.05  -0.13   0.15     0.11  -0.04  -0.19
  18   6     0.06  -0.06  -0.12    -0.01   0.01   0.07     0.05  -0.11  -0.11
  19   6     0.12   0.09   0.06    -0.15   0.06  -0.11    -0.03   0.16   0.12
  20   6     0.14  -0.03   0.06    -0.15  -0.02  -0.13     0.00   0.13   0.18
  21   6     0.03  -0.09  -0.12    -0.00  -0.02  -0.07    -0.09   0.09   0.11
  22   6     0.10  -0.01  -0.14    -0.11  -0.04  -0.22    -0.15   0.12  -0.03
  23   6     0.20   0.15  -0.04    -0.03   0.07  -0.13    -0.11   0.19   0.02
  24   6     0.07   0.13  -0.04     0.06   0.14  -0.02    -0.01   0.19   0.02
  25   6    -0.08   0.02   0.09     0.12   0.04   0.19     0.03  -0.11   0.01
  26   6    -0.12   0.04   0.14     0.18   0.07  -0.05     0.06  -0.06  -0.14
  27   6    -0.07   0.01   0.01     0.10   0.07  -0.07    -0.05  -0.04  -0.05
  28   6    -0.18   0.07   0.17    -0.00   0.04   0.05    -0.10  -0.13  -0.03
  29   6    -0.13   0.05   0.10     0.03  -0.03   0.15    -0.03  -0.21  -0.08
  30   6    -0.01  -0.02  -0.07     0.09  -0.01   0.18    -0.03  -0.14   0.07
  31   1     0.07   0.02  -0.04    -0.03  -0.02  -0.03     0.03   0.04  -0.02
  32   1     0.01  -0.03  -0.03    -0.06  -0.08  -0.02     0.06   0.03  -0.02
  33   1    -0.04  -0.07  -0.03    -0.02  -0.02   0.03     0.05   0.02   0.02
  34   1     0.02  -0.02  -0.03    -0.09  -0.03   0.03     0.05   0.05   0.01
  35   1    -0.00   0.06   0.07     0.06   0.07   0.04     0.01   0.06   0.08
  36   1     0.00   0.04   0.04     0.02   0.03  -0.08    -0.02   0.03  -0.01
  37   1     0.00   0.05   0.03    -0.03  -0.00  -0.05    -0.08   0.01   0.04
  38   1    -0.00   0.08   0.07     0.00  -0.03  -0.02    -0.05  -0.05   0.01
  39   1    -0.00  -0.04  -0.06    -0.03  -0.04   0.10     0.01  -0.06   0.05
  40   1    -0.08  -0.07   0.00     0.03  -0.01   0.05     0.04  -0.05   0.00
  41   1    -0.04  -0.01   0.04     0.00  -0.06   0.03     0.05  -0.03  -0.07
  42   1     0.00  -0.05   0.05    -0.03  -0.04   0.04     0.05   0.01  -0.08
  43   1     0.02   0.04   0.04    -0.06   0.01  -0.03    -0.01   0.06   0.07
  44   1     0.05  -0.01   0.04    -0.05  -0.02  -0.03     0.03   0.05   0.07
  45   1     0.04  -0.01  -0.07    -0.05  -0.02  -0.10    -0.06   0.02  -0.05
  46   1     0.09   0.06  -0.01    -0.01   0.03  -0.05    -0.04   0.05  -0.00
  47   1    -0.03   0.01   0.04     0.04   0.02   0.08     0.03  -0.03   0.01
  48   1    -0.05   0.02   0.07     0.08   0.03  -0.05     0.05  -0.01  -0.08
  49   1    -0.07   0.03   0.07    -0.02   0.01   0.02    -0.06  -0.04  -0.00
  50   1    -0.04   0.01   0.04    -0.00  -0.03   0.05    -0.01  -0.08  -0.03
                     16                     17                     18
                        a                      a                      a 
 Frequencies --   328.8374               345.7764               353.3853
 Red. masses --    10.6727                 9.9923                10.0867
 Frc consts  --     0.0000                 0.0000                 0.0000
 IR Inten    --     0.9088                 0.8049                 0.4512
 Raman Activ --     0.0000                 0.0000                 0.0000
 Depolar     --     0.0000                 0.0000                 0.0000
 Atom AN      X      Y      Z        X      Y      Z        X      Y      Z
   1   6     0.15  -0.00   0.11    -0.13  -0.13   0.16    -0.07   0.14  -0.05
   2   6     0.07  -0.06   0.13     0.04   0.23   0.10    -0.23   0.02  -0.06
   3   6    -0.02  -0.13   0.10    -0.05   0.16   0.03    -0.18   0.02  -0.06
   4   6    -0.03  -0.14   0.13    -0.17  -0.10  -0.14    -0.13   0.11  -0.05
   5   6     0.06  -0.07   0.13     0.23  -0.03  -0.12     0.03   0.22  -0.08
   6   6     0.14  -0.00   0.09     0.14  -0.09  -0.03     0.02   0.18  -0.07
   7   6    -0.14   0.10  -0.03     0.10  -0.02   0.14     0.15   0.03   0.13
   8   6    -0.14   0.07  -0.09     0.08  -0.17  -0.17     0.06  -0.05  -0.22
   9   6    -0.04   0.06  -0.12     0.01  -0.11  -0.05    -0.01   0.02  -0.07
  10   6    -0.08  -0.03  -0.14    -0.01  -0.09   0.05    -0.09  -0.01   0.18
  11   6    -0.11  -0.05  -0.13     0.03  -0.08   0.10     0.01  -0.24   0.04
  12   6    -0.16   0.00  -0.03     0.10   0.04   0.17     0.07  -0.14   0.09
  13   6     0.17  -0.02  -0.08    -0.06   0.01   0.05     0.09   0.05  -0.08
  14   6    -0.01  -0.09   0.07     0.09   0.11  -0.08    -0.03  -0.07   0.07
  15   6     0.01   0.05   0.11     0.05   0.05  -0.02    -0.03  -0.02   0.09
  16   6     0.13   0.18   0.05    -0.06  -0.01  -0.06    -0.00   0.03   0.05
  17   6     0.16   0.05   0.09    -0.10   0.04  -0.07     0.04   0.04   0.01
  18   6     0.16  -0.03  -0.05    -0.12  -0.01   0.01     0.05   0.03  -0.09
  19   6    -0.20  -0.07   0.07    -0.02  -0.05   0.06    -0.03   0.01   0.05
  20   6    -0.08  -0.14   0.11     0.02  -0.10   0.08    -0.05  -0.02   0.01
  21   6    -0.02  -0.17  -0.04    -0.04  -0.11   0.01    -0.05  -0.05  -0.09
  22   6    -0.04  -0.18  -0.07    -0.01  -0.06  -0.04    -0.08  -0.07  -0.07
  23   6     0.09  -0.00   0.07     0.14   0.07   0.07     0.08   0.02   0.06
  24   6    -0.04   0.01   0.12     0.07   0.04   0.01     0.04   0.03   0.08
  25   6    -0.04   0.15  -0.09    -0.13   0.13   0.17     0.01  -0.09  -0.22
  26   6    -0.06   0.16  -0.04    -0.00   0.09  -0.15    -0.05  -0.13   0.15
  27   6     0.04   0.15  -0.04     0.05   0.08  -0.18     0.13  -0.10   0.09
  28   6     0.06   0.09  -0.14    -0.08   0.05  -0.10     0.23  -0.07   0.02
  29   6     0.03   0.06  -0.14    -0.09   0.01  -0.05     0.05   0.10   0.17
  30   6    -0.06   0.05  -0.12    -0.10   0.04   0.06    -0.02   0.01  -0.07
  31   1     0.07   0.02   0.03    -0.07  -0.08   0.11    -0.04   0.03  -0.02
  32   1     0.03  -0.01   0.04     0.05   0.13   0.06    -0.11  -0.02  -0.02
  33   1    -0.04  -0.06   0.04    -0.11  -0.06  -0.10    -0.02   0.04  -0.02
  34   1     0.00  -0.03   0.04     0.13   0.01  -0.07     0.05   0.09  -0.03
  35   1    -0.03   0.05   0.01     0.04   0.01   0.06     0.09   0.04   0.06
  36   1    -0.04   0.01  -0.02     0.03  -0.07  -0.11     0.03  -0.03  -0.14
  37   1    -0.04  -0.03  -0.06    -0.01  -0.02   0.03    -0.08   0.01   0.10
  38   1    -0.03  -0.02  -0.07     0.00  -0.04   0.04    -0.01  -0.11   0.01
  39   1     0.06   0.00  -0.06    -0.02   0.02   0.03     0.04   0.04  -0.05
  40   1    -0.05  -0.06   0.02     0.05   0.07  -0.05    -0.03  -0.04   0.02
  41   1     0.05   0.09   0.00    -0.02  -0.03  -0.03     0.00   0.02   0.01
  42   1     0.08   0.02   0.05    -0.03   0.02  -0.03     0.03   0.02   0.01
  43   1    -0.10  -0.03   0.01    -0.03  -0.01   0.03    -0.02   0.00   0.01
  44   1    -0.04  -0.06   0.06     0.01  -0.03   0.03    -0.02  -0.02   0.01
  45   1    -0.02  -0.06  -0.05     0.01  -0.03  -0.03    -0.05  -0.03  -0.04
  46   1     0.07   0.03   0.01     0.08   0.04   0.04     0.04   0.02   0.02
  47   1    -0.00   0.04  -0.02    -0.05   0.06   0.11     0.01  -0.05  -0.14
  48   1    -0.03   0.04   0.01     0.02   0.03  -0.07    -0.05  -0.07   0.07
  49   1     0.02   0.02  -0.08    -0.04   0.01  -0.04     0.11  -0.02  -0.00
  50   1     0.03   0.03  -0.07    -0.02  -0.01  -0.03     0.01   0.08   0.10
                     19                     20                     21
                        a                      a                      a 
 Frequencies --   365.6060               381.1404               381.8755
 Red. masses --     9.3091                10.3772                10.4517
 Frc consts  --     0.0000                 0.0000                 0.0000
 IR Inten    --     0.0446                 1.6587                 2.0917
 Raman Activ --     0.0000                 0.0000                 0.0000
 Depolar     --     0.0000                 0.0000                 0.0000
 Atom AN      X      Y      Z        X      Y      Z        X      Y      Z
   1   6     0.08   0.06  -0.05    -0.08  -0.11  -0.05    -0.13  -0.16   0.11
   2   6    -0.06  -0.09  -0.03     0.08   0.03  -0.06     0.08   0.07   0.05
   3   6     0.04   0.01   0.01     0.12   0.08  -0.03    -0.07  -0.05  -0.11
   4   6     0.09   0.06   0.04     0.12   0.05  -0.07    -0.20  -0.09  -0.09
   5   6    -0.10  -0.04   0.04    -0.05  -0.08  -0.05     0.08   0.05  -0.06
   6   6     0.01   0.04  -0.01    -0.11  -0.10  -0.02    -0.05  -0.05   0.12
   7   6    -0.05  -0.09  -0.07     0.05   0.15   0.13     0.08  -0.05  -0.12
   8   6     0.01  -0.02   0.16    -0.00   0.02  -0.09     0.06   0.09   0.03
   9   6     0.04  -0.08   0.00    -0.12   0.04   0.06     0.04   0.12   0.10
  10   6     0.10  -0.07  -0.13    -0.13   0.15   0.13     0.03   0.10   0.15
  11   6     0.05   0.16   0.09    -0.08  -0.06  -0.13     0.07  -0.11  -0.11
  12   6    -0.00   0.06   0.00     0.05   0.06  -0.03     0.02  -0.16  -0.15
  13   6    -0.10  -0.05   0.15    -0.03  -0.16   0.08     0.00  -0.00   0.10
  14   6     0.18   0.10  -0.10     0.02   0.01  -0.09     0.04  -0.06   0.08
  15   6     0.07  -0.07  -0.02     0.06   0.09  -0.13    -0.02  -0.18   0.04
  16   6    -0.09  -0.21  -0.03     0.13   0.10  -0.10    -0.01  -0.23   0.10
  17   6    -0.05   0.07  -0.25     0.02  -0.16   0.13     0.11   0.04  -0.14
  18   6    -0.10   0.02  -0.04    -0.00  -0.16   0.18     0.08   0.10  -0.03
  19   6    -0.22  -0.03   0.05    -0.13  -0.10  -0.08    -0.23   0.04  -0.09
  20   6     0.07  -0.05   0.24     0.16  -0.05   0.12     0.08   0.10   0.12
  21   6    -0.00  -0.10   0.05     0.17  -0.03   0.17     0.11   0.05   0.02
  22   6    -0.08  -0.09  -0.14     0.17  -0.01   0.06    -0.01  -0.00  -0.10
  23   6     0.15   0.15   0.07    -0.02  -0.02  -0.09    -0.05   0.04  -0.08
  24   6    -0.04   0.09   0.02    -0.11  -0.05  -0.12    -0.18   0.02  -0.02
  25   6    -0.03   0.01  -0.16    -0.03  -0.00  -0.09     0.10   0.04  -0.04
  26   6    -0.09  -0.02   0.08    -0.14  -0.01   0.15    -0.02   0.10   0.12
  27   6     0.06  -0.02  -0.00    -0.07  -0.03  -0.02    -0.14   0.08   0.16
  28   6     0.16  -0.00  -0.11     0.07   0.06  -0.14    -0.08   0.10   0.11
  29   6    -0.03   0.12   0.12    -0.10   0.17   0.13     0.10  -0.00  -0.16
  30   6    -0.07   0.06   0.00    -0.00   0.13   0.05     0.11   0.00  -0.11
  31   1     0.04   0.04  -0.03    -0.03  -0.04  -0.02    -0.07  -0.07   0.04
  32   1    -0.06  -0.07  -0.01     0.05   0.03  -0.02     0.05   0.08   0.04
  33   1     0.05   0.03   0.02     0.04   0.02  -0.02    -0.09  -0.05  -0.03
  34   1    -0.08  -0.04   0.02    -0.04  -0.04  -0.01     0.08   0.03  -0.05
  35   1    -0.04  -0.06  -0.05     0.02   0.08   0.09     0.03  -0.02  -0.05
  36   1    -0.00   0.01   0.09     0.01   0.01  -0.06     0.02   0.04   0.02
  37   1     0.06  -0.03  -0.07    -0.04   0.06   0.07    -0.01   0.05   0.08
  38   1     0.02   0.10   0.07    -0.04  -0.08  -0.07     0.02  -0.05  -0.05
  39   1    -0.05  -0.03   0.11    -0.02  -0.08   0.04    -0.01  -0.02   0.06
  40   1     0.10   0.08  -0.05     0.00   0.00  -0.03     0.02  -0.02   0.05
  41   1    -0.04  -0.12  -0.01     0.05   0.07  -0.04    -0.02  -0.10   0.05
  42   1    -0.02   0.05  -0.13     0.00  -0.06   0.06     0.03   0.03  -0.09
  43   1    -0.12  -0.01   0.02    -0.08  -0.04  -0.03    -0.10  -0.00  -0.04
  44   1     0.05  -0.02   0.13     0.06  -0.01   0.06     0.05   0.02   0.08
  45   1    -0.05  -0.05  -0.10     0.09   0.00   0.03    -0.03  -0.01  -0.06
  46   1     0.11   0.08   0.04    -0.01  -0.00  -0.03    -0.02   0.02  -0.05
  47   1    -0.00  -0.01  -0.09    -0.02  -0.01  -0.06     0.04   0.01  -0.02
  48   1    -0.06  -0.02   0.06    -0.08   0.01   0.10    -0.01   0.04   0.05
  49   1     0.09  -0.01  -0.08     0.08   0.01  -0.08    -0.04   0.03   0.05
  50   1    -0.01   0.07   0.06    -0.04   0.06   0.07     0.04  -0.02  -0.08
                     22                     23                     24
                        a                      a                      a 
 Frequencies --   394.3442               423.3954               437.5209
 Red. masses --     9.9482                 9.3761                10.0946
 Frc consts  --     0.0000                 0.0000                 0.0000
 IR Inten    --     0.3294                 0.0048                 0.0467
 Raman Activ --     0.0000                 0.0000                 0.0000
 Depolar     --     0.0000                 0.0000                 0.0000
 Atom AN      X      Y      Z        X      Y      Z        X      Y      Z
   1   6     0.15   0.07  -0.01     0.20   0.09  -0.02     0.10   0.06  -0.04
   2   6    -0.08  -0.11   0.01    -0.17  -0.10  -0.03    -0.07  -0.06  -0.03
   3   6    -0.11  -0.14  -0.01    -0.03   0.05  -0.03    -0.06  -0.06  -0.03
   4   6    -0.10  -0.13   0.01     0.14   0.17  -0.00    -0.09  -0.08  -0.03
   5   6     0.13   0.04  -0.00    -0.13  -0.14   0.05     0.08   0.05  -0.04
   6   6     0.16   0.07  -0.03     0.04  -0.04   0.03     0.07   0.04  -0.04
   7   6    -0.02   0.14   0.13    -0.04   0.15   0.14     0.05   0.01   0.05
   8   6     0.02  -0.09  -0.18     0.05  -0.15  -0.13     0.03  -0.03  -0.06
   9   6     0.07  -0.06  -0.16     0.05  -0.04   0.09     0.01  -0.03  -0.08
  10   6     0.04  -0.03  -0.07     0.04   0.09   0.21     0.04  -0.08  -0.18
  11   6     0.01   0.06   0.02    -0.03  -0.09  -0.22     0.06   0.10   0.13
  12   6    -0.03   0.09   0.07    -0.06   0.05  -0.06     0.06   0.08   0.10
  13   6    -0.07  -0.12   0.23    -0.04  -0.05   0.05    -0.02   0.15  -0.03
  14   6     0.15   0.21  -0.12    -0.00   0.12  -0.08     0.03  -0.06   0.08
  15   6     0.05   0.09  -0.01    -0.10  -0.03   0.02     0.13   0.01  -0.04
  16   6    -0.05  -0.05   0.08    -0.08  -0.02   0.06     0.18   0.15  -0.18
  17   6     0.04   0.08  -0.07     0.07   0.08  -0.08    -0.20  -0.10   0.20
  18   6    -0.01  -0.03   0.05     0.02  -0.02   0.06    -0.14   0.02   0.12
  19   6     0.07   0.04   0.07    -0.04  -0.07  -0.05    -0.21  -0.15  -0.15
  20   6    -0.10  -0.03  -0.05     0.10   0.05   0.07     0.16   0.18   0.17
  21   6     0.03   0.00   0.04    -0.02   0.02  -0.06     0.03   0.15   0.11
  22   6     0.16   0.05   0.21    -0.06  -0.03  -0.05    -0.14   0.06  -0.03
  23   6    -0.25  -0.10  -0.09     0.12  -0.03   0.07     0.06  -0.04   0.08
  24   6    -0.10  -0.02   0.00    -0.06  -0.09  -0.01    -0.04  -0.13  -0.03
  25   6     0.06  -0.05  -0.18    -0.12   0.10   0.14     0.02  -0.04  -0.06
  26   6    -0.12   0.07   0.14     0.12  -0.08  -0.15    -0.02  -0.04   0.05
  27   6    -0.07   0.06   0.08     0.04  -0.07   0.06    -0.08  -0.03   0.12
  28   6    -0.06   0.01   0.03    -0.07   0.00   0.23    -0.09  -0.02   0.14
  29   6     0.01  -0.05  -0.07     0.07   0.01  -0.22     0.06  -0.07  -0.18
  30   6     0.03  -0.09  -0.16    -0.03   0.05  -0.09     0.02  -0.02  -0.09
  31   1     0.07   0.04  -0.01     0.10   0.06  -0.01     0.04   0.03  -0.02
  32   1    -0.03  -0.04   0.00    -0.11  -0.07  -0.01    -0.04  -0.03  -0.01
  33   1    -0.06  -0.06   0.00     0.08   0.08  -0.01    -0.04  -0.03  -0.01
  34   1     0.05   0.02  -0.00    -0.10  -0.09   0.02     0.04   0.03  -0.01
  35   1    -0.01   0.07   0.08    -0.02   0.08   0.10     0.01  -0.00   0.01
  36   1     0.01  -0.05  -0.08     0.02  -0.09  -0.10     0.01  -0.01  -0.02
  37   1     0.01  -0.01  -0.02     0.03   0.06   0.11     0.01  -0.04  -0.07
  38   1     0.01   0.03   0.00    -0.01  -0.06  -0.13     0.02   0.05   0.07
  39   1    -0.05  -0.08   0.13    -0.02  -0.03   0.02     0.02   0.10  -0.04
  40   1     0.08   0.11  -0.08     0.02   0.07  -0.06     0.01  -0.04   0.06
  41   1    -0.04  -0.05   0.05    -0.04  -0.01   0.04     0.09   0.07  -0.11
  42   1     0.03   0.05  -0.05     0.04   0.04  -0.05    -0.11  -0.07   0.09
  43   1     0.06   0.03   0.04    -0.03  -0.04  -0.04    -0.10  -0.07  -0.10
  44   1    -0.06  -0.02  -0.04     0.06   0.03   0.04     0.11   0.09   0.07
  45   1     0.10   0.04   0.11    -0.04  -0.01  -0.02    -0.10   0.01  -0.03
  46   1    -0.14  -0.05  -0.06     0.08   0.00   0.05     0.05  -0.01   0.06
  47   1     0.04  -0.02  -0.08    -0.08   0.05   0.10     0.01  -0.01  -0.02
  48   1    -0.06   0.03   0.09     0.06  -0.05  -0.10    -0.00  -0.01   0.01
  49   1    -0.03   0.00   0.00    -0.04   0.02   0.13    -0.04   0.00   0.08
  50   1     0.00  -0.02  -0.02     0.06   0.00  -0.12     0.03  -0.03  -0.07
                     25                     26                     27
                        a                      a                      a 
 Frequencies --   448.4395               448.6156               473.5100
 Red. masses --     9.6046                 9.5374                 9.4937
 Frc consts  --     0.0000                 0.0000                 0.0000
 IR Inten    --     0.0059                 0.0337                 0.0056
 Raman Activ --     0.0000                 0.0000                 0.0000
 Depolar     --     0.0000                 0.0000                 0.0000
 Atom AN      X      Y      Z        X      Y      Z        X      Y      Z
   1   6     0.04  -0.08   0.03    -0.24  -0.03  -0.10    -0.12  -0.00  -0.07
   2   6     0.06  -0.05   0.03     0.28  -0.00  -0.03     0.14  -0.06  -0.02
   3   6     0.04  -0.03   0.02     0.08  -0.20   0.05     0.09  -0.10   0.02
   4   6     0.07  -0.05   0.03    -0.08  -0.22   0.12    -0.03  -0.11   0.08
   5   6     0.04  -0.07   0.03     0.07   0.27   0.00    -0.02   0.15   0.01
   6   6     0.02  -0.05   0.02    -0.18   0.13  -0.04    -0.08   0.11  -0.02
   7   6    -0.12   0.14   0.13    -0.09   0.10   0.02    -0.09   0.10   0.06
   8   6     0.06  -0.24  -0.09    -0.04  -0.01  -0.04     0.06  -0.16  -0.03
   9   6     0.12  -0.11   0.11     0.03  -0.02  -0.06     0.09  -0.09   0.06
  10   6     0.15   0.03   0.17     0.01   0.05  -0.03     0.13   0.03   0.07
  11   6    -0.03   0.02  -0.21    -0.05   0.10  -0.03    -0.01   0.09  -0.13
  12   6    -0.10   0.13  -0.05    -0.08   0.04  -0.04    -0.06   0.10  -0.07
  13   6    -0.02   0.17  -0.10    -0.04  -0.13   0.08    -0.02   0.17  -0.08
  14   6    -0.04  -0.05   0.07    -0.02   0.18  -0.13     0.05  -0.16   0.11
  15   6    -0.03  -0.09   0.03    -0.10   0.09   0.00     0.12  -0.11  -0.01
  16   6    -0.04  -0.03  -0.05    -0.11   0.06   0.09     0.09  -0.07  -0.14
  17   6    -0.10   0.05  -0.05     0.09   0.06  -0.00    -0.17  -0.03  -0.03
  18   6    -0.08   0.07  -0.01     0.06  -0.06   0.04    -0.13   0.08  -0.02
  19   6     0.03   0.02  -0.05     0.02  -0.12  -0.09    -0.04   0.11   0.13
  20   6    -0.03   0.11  -0.06     0.08   0.07  -0.01    -0.07  -0.15   0.05
  21   6    -0.05   0.10  -0.01    -0.05   0.07  -0.04     0.04  -0.14   0.03
  22   6    -0.16   0.05  -0.08    -0.14  -0.01  -0.07     0.17  -0.06   0.07
  23   6     0.07   0.03   0.07     0.18  -0.06   0.12    -0.16   0.08  -0.10
  24   6     0.10   0.01   0.02     0.06  -0.12  -0.00    -0.07   0.14   0.01
  25   6     0.21  -0.13  -0.10    -0.01  -0.04   0.04    -0.13   0.10   0.03
  26   6    -0.09   0.16   0.12     0.07  -0.12  -0.02     0.07  -0.11  -0.06
  27   6    -0.10   0.13  -0.05     0.03  -0.08   0.05     0.09  -0.08   0.06
  28   6    -0.03   0.02  -0.21     0.09  -0.07   0.03     0.09  -0.02   0.12
  29   6    -0.05  -0.12   0.18     0.05  -0.00   0.02     0.05   0.11  -0.09
  30   6     0.08  -0.13   0.12    -0.00   0.03   0.06    -0.07   0.11  -0.06
  31   1     0.04  -0.00   0.01    -0.12  -0.04  -0.09    -0.08  -0.02  -0.06
  32   1     0.05   0.00   0.00     0.19   0.04  -0.05     0.08  -0.02  -0.03
  33   1    -0.01  -0.03   0.01    -0.06  -0.10   0.10    -0.04  -0.06   0.07
  34   1    -0.01  -0.05   0.01     0.09   0.17   0.03     0.01   0.09   0.03
  35   1    -0.08   0.06   0.09    -0.05   0.05   0.05    -0.07   0.04   0.06
  36   1     0.01  -0.15  -0.07    -0.02  -0.01   0.01     0.01  -0.10  -0.02
  37   1     0.09   0.05   0.09     0.02   0.01  -0.02     0.08   0.04   0.05
  38   1     0.01   0.00  -0.14    -0.01   0.03  -0.05     0.01   0.04  -0.09
  39   1     0.02   0.10  -0.05    -0.03  -0.08   0.03     0.01   0.12  -0.03
  40   1    -0.00  -0.02   0.04    -0.00   0.09  -0.10     0.02  -0.07   0.09
  41   1    -0.01  -0.02  -0.03    -0.05   0.01   0.07     0.05  -0.03  -0.10
  42   1    -0.06  -0.00  -0.01     0.06   0.04  -0.00    -0.10  -0.04  -0.01
  43   1     0.02   0.00  -0.03    -0.01  -0.06  -0.07    -0.01   0.06   0.10
  44   1     0.01   0.05  -0.02     0.05   0.05  -0.01    -0.07  -0.09   0.02
  45   1    -0.11   0.01  -0.04    -0.09  -0.01  -0.02     0.12  -0.02   0.02
  46   1     0.02   0.00   0.04     0.10  -0.02   0.09    -0.07   0.04  -0.09
  47   1     0.14  -0.05  -0.08    -0.01  -0.02  -0.00    -0.09   0.03   0.03
  48   1    -0.03   0.10   0.09     0.03  -0.06  -0.05     0.02  -0.08  -0.06
  49   1    -0.02  -0.02  -0.14     0.03  -0.01   0.04     0.05   0.01   0.08
  50   1    -0.06  -0.07   0.10     0.02   0.01   0.02     0.05   0.07  -0.06
                     28                     29                     30
                        a                      a                      a 
 Frequencies --   486.5733               489.9265               501.6419
 Red. masses --    10.2751                10.4758                10.3058
 Frc consts  --     0.0000                 0.0000                 0.0000
 IR Inten    --     0.0246                 0.0763                 0.0218
 Raman Activ --     0.0000                 0.0000                 0.0000
 Depolar     --     0.0000                 0.0000                 0.0000
 Atom AN      X      Y      Z        X      Y      Z        X      Y      Z
   1   6    -0.01   0.13  -0.07    -0.08  -0.14  -0.13    -0.12  -0.04  -0.03
   2   6    -0.02   0.10  -0.03     0.11   0.04  -0.15    -0.02  -0.04   0.01
   3   6    -0.12  -0.05   0.14     0.12   0.07  -0.08     0.22   0.16   0.13
   4   6     0.12  -0.04   0.06     0.14   0.04  -0.15    -0.06  -0.11   0.04
   5   6     0.10  -0.04   0.02    -0.08  -0.11  -0.14    -0.04  -0.01  -0.01
   6   6    -0.09  -0.11  -0.13    -0.11  -0.10  -0.06     0.20   0.16  -0.16
   7   6    -0.14   0.02   0.02    -0.03  -0.05   0.15     0.00  -0.05  -0.08
   8   6    -0.10  -0.06  -0.09    -0.06  -0.12   0.04    -0.03   0.01  -0.02
   9   6     0.07   0.05   0.02    -0.11  -0.17  -0.09    -0.13   0.09   0.25
  10   6     0.04  -0.19  -0.05    -0.13  -0.09  -0.05    -0.06   0.00  -0.08
  11   6    -0.02  -0.07   0.09    -0.14   0.08   0.15    -0.03  -0.03  -0.09
  12   6    -0.13   0.04   0.21     0.02   0.04   0.02     0.09   0.20   0.15
  13   6     0.05   0.15   0.05     0.13  -0.00  -0.03     0.04   0.01  -0.02
  14   6    -0.01   0.00   0.17     0.11  -0.01   0.02     0.02  -0.01  -0.03
  15   6    -0.00  -0.05   0.06    -0.02  -0.03   0.23    -0.12  -0.20   0.04
  16   6     0.02  -0.10   0.20    -0.06   0.10   0.04     0.08  -0.01  -0.04
  17   6     0.11   0.15   0.00    -0.02   0.16  -0.06     0.10   0.01  -0.06
  18   6     0.10   0.17  -0.04    -0.08  -0.12  -0.02    -0.01  -0.08   0.21
  19   6    -0.10   0.03  -0.20    -0.08   0.08   0.04     0.02   0.08   0.03
  20   6     0.17   0.07  -0.02    -0.15   0.06  -0.05     0.04   0.10   0.05
  21   6     0.19   0.05   0.02     0.14   0.05  -0.03    -0.09  -0.00  -0.20
  22   6     0.15   0.01  -0.06    -0.03  -0.13  -0.02     0.02   0.04   0.02
  23   6    -0.02  -0.03  -0.17    -0.02  -0.11   0.03    -0.00   0.02   0.03
  24   6    -0.05   0.01  -0.06     0.05   0.03   0.22    -0.22  -0.06  -0.02
  25   6    -0.08  -0.08   0.10     0.14   0.03   0.03    -0.00  -0.03   0.02
  26   6    -0.02  -0.14  -0.01     0.07   0.03   0.15    -0.04   0.02   0.08
  27   6    -0.01  -0.15  -0.20    -0.04  -0.01   0.02     0.20   0.03  -0.17
  28   6    -0.08  -0.01  -0.08    -0.03   0.16   0.14    -0.02  -0.02   0.10
  29   6    -0.17   0.09   0.06     0.12   0.10  -0.07    -0.01  -0.05   0.09
  30   6     0.06   0.05  -0.03     0.19   0.05  -0.11     0.03  -0.16  -0.24
  31   1     0.06   0.08  -0.00    -0.04  -0.05  -0.04    -0.10  -0.07   0.01
  32   1     0.07   0.06  -0.03     0.05   0.03  -0.04    -0.03  -0.07  -0.02
  33   1     0.09   0.04  -0.01     0.05   0.02  -0.05    -0.09  -0.08   0.00
  34   1     0.08   0.06   0.02    -0.04  -0.04  -0.03    -0.07  -0.01   0.03
  35   1    -0.02  -0.03  -0.05    -0.02   0.01   0.09    -0.02  -0.06  -0.07
  36   1    -0.03  -0.09  -0.08    -0.01  -0.00   0.02     0.00  -0.00  -0.06
  37   1    -0.01  -0.10  -0.07    -0.02  -0.02  -0.01     0.00  -0.04  -0.10
  38   1     0.00  -0.02  -0.03    -0.04   0.04   0.10    -0.02  -0.08  -0.08
  39   1     0.01   0.03   0.02     0.07   0.07  -0.05     0.02   0.00  -0.05
  40   1    -0.01  -0.03   0.09     0.04   0.04  -0.06     0.03   0.02  -0.02
  41   1    -0.02  -0.06   0.09     0.01   0.04  -0.04     0.05   0.05  -0.04
  42   1     0.02   0.04  -0.01     0.05   0.10  -0.05     0.04   0.04  -0.08
  43   1    -0.07  -0.01  -0.09    -0.05  -0.00  -0.04     0.07   0.04   0.03
  44   1     0.05   0.01   0.01    -0.11  -0.03  -0.04     0.06   0.04   0.07
  45   1     0.04   0.00  -0.02    -0.09  -0.05  -0.03     0.01   0.03   0.04
  46   1    -0.04  -0.01  -0.08    -0.05  -0.03  -0.05     0.03   0.03   0.01
  47   1    -0.09  -0.00   0.09     0.01   0.01   0.02     0.01   0.01   0.06
  48   1    -0.03  -0.01   0.05     0.00   0.03   0.09    -0.05  -0.00   0.08
  49   1    -0.02   0.01   0.03    -0.02   0.06   0.10    -0.07   0.01   0.08
  50   1    -0.09   0.02   0.08     0.02   0.02  -0.01    -0.03   0.02   0.10
                     31                     32                     33
                        a                      a                      a 
 Frequencies --   549.2672               550.9444               572.0948
 Red. masses --     9.7482                 9.8086                 9.1223
 Frc consts  --     0.0000                 0.0000                 0.0000
 IR Inten    --    11.7831                11.6452                 0.0132
 Raman Activ --     0.0000                 0.0000                 0.0000
 Depolar     --     0.0000                 0.0000                 0.0000
 Atom AN      X      Y      Z        X      Y      Z        X      Y      Z
   1   6     0.10   0.04  -0.06     0.06   0.02   0.01     0.01  -0.03   0.02
   2   6    -0.06  -0.08  -0.05     0.02   0.02  -0.02     0.03  -0.03   0.03
   3   6    -0.00  -0.01  -0.01    -0.23  -0.20  -0.12     0.20   0.16   0.03
   4   6    -0.07  -0.09  -0.04     0.03   0.05  -0.02    -0.03   0.02  -0.02
   5   6     0.09   0.04  -0.06     0.03   0.01   0.02    -0.03   0.03  -0.03
   6   6     0.01  -0.00  -0.01    -0.24  -0.16   0.15     0.21   0.15  -0.06
   7   6     0.03  -0.03  -0.01     0.04   0.05   0.07    -0.02  -0.01   0.04
   8   6    -0.03  -0.02  -0.05    -0.01   0.02  -0.09     0.00  -0.04   0.01
   9   6    -0.13   0.11   0.29     0.00   0.02  -0.07     0.02  -0.11  -0.19
  10   6    -0.03  -0.01  -0.11     0.02   0.02  -0.11    -0.08  -0.08   0.01
  11   6     0.02   0.00  -0.03     0.08   0.06   0.08    -0.13   0.02   0.06
  12   6     0.12   0.24   0.22     0.01  -0.06  -0.01    -0.06  -0.14  -0.15
  13   6     0.07   0.01  -0.05    -0.04   0.03   0.01    -0.02   0.07  -0.01
  14   6    -0.07   0.01   0.01     0.06   0.00  -0.06     0.05  -0.05   0.02
  15   6    -0.14  -0.12   0.03    -0.13  -0.27   0.06    -0.02  -0.09   0.08
  16   6    -0.07  -0.04  -0.02     0.15   0.03  -0.05     0.12   0.00   0.21
  17   6     0.11  -0.02  -0.11     0.01   0.02   0.04     0.05   0.24   0.09
  18   6     0.02  -0.08   0.16    -0.08  -0.07   0.29    -0.04   0.02   0.09
  19   6     0.05   0.05  -0.02     0.07   0.14   0.04     0.01   0.10  -0.22
  20   6    -0.02  -0.11  -0.10     0.02   0.00  -0.04     0.23  -0.02  -0.11
  21   6     0.09  -0.03   0.15    -0.12  -0.08  -0.28    -0.00  -0.05  -0.09
  22   6    -0.03  -0.07  -0.04     0.02  -0.05  -0.01     0.06  -0.04   0.01
  23   6     0.01   0.07   0.00     0.02   0.06   0.05    -0.04   0.06  -0.02
  24   6     0.16   0.11   0.01    -0.30  -0.06  -0.03    -0.10   0.00  -0.07
  25   6     0.02   0.02  -0.06     0.02  -0.01   0.08    -0.04   0.01  -0.01
  26   6     0.02  -0.03  -0.01     0.05   0.02  -0.08    -0.02  -0.02  -0.04
  27   6    -0.25  -0.04   0.25    -0.05   0.02   0.02    -0.14  -0.01   0.17
  28   6    -0.01  -0.02  -0.02     0.07   0.06  -0.09    -0.02  -0.14  -0.05
  29   6     0.01   0.02  -0.12     0.04   0.02   0.11    -0.10  -0.06   0.00
  30   6    -0.04   0.18   0.29     0.03   0.00   0.07    -0.09   0.07   0.19
  31   1     0.03   0.01  -0.02     0.11   0.09  -0.03    -0.11  -0.10   0.03
  32   1    -0.01  -0.02  -0.02     0.08   0.10   0.02    -0.11  -0.11   0.01
  33   1    -0.02  -0.03  -0.02     0.11   0.08   0.01    -0.13  -0.08  -0.01
  34   1     0.02   0.00  -0.02     0.11   0.05  -0.03    -0.13  -0.08   0.01
  35   1    -0.01  -0.08  -0.10     0.04   0.02   0.02    -0.01   0.07   0.12
  36   1     0.01  -0.03  -0.13     0.00   0.03  -0.01    -0.01   0.04   0.09
  37   1     0.01  -0.07  -0.15    -0.01   0.01  -0.03    -0.04   0.02   0.08
  38   1    -0.01  -0.10  -0.09     0.02   0.03   0.04    -0.03   0.09   0.12
  39   1     0.03  -0.01  -0.07     0.02   0.06  -0.07     0.02   0.07  -0.03
  40   1    -0.00   0.04  -0.04     0.09   0.06  -0.03     0.04   0.01   0.01
  41   1     0.00   0.04  -0.01     0.10   0.09  -0.08     0.04   0.01   0.05
  42   1     0.06   0.04  -0.08     0.01   0.06  -0.08     0.03   0.10  -0.03
  43   1    -0.04   0.01  -0.01     0.12   0.08   0.06     0.01   0.03  -0.05
  44   1    -0.06  -0.05  -0.07     0.07   0.01   0.08     0.11   0.00   0.02
  45   1    -0.01  -0.04  -0.07     0.07   0.01   0.06     0.08   0.00   0.03
  46   1    -0.04   0.01  -0.04     0.09   0.07   0.02     0.02   0.04  -0.01
  47   1     0.02  -0.03  -0.13     0.03  -0.01   0.01     0.02  -0.02  -0.09
  48   1     0.07  -0.02  -0.11     0.03   0.03  -0.03     0.06  -0.04  -0.13
  49   1     0.09  -0.02  -0.09     0.03   0.01  -0.05     0.06  -0.06  -0.12
  50   1     0.05  -0.04  -0.15     0.01  -0.01   0.02     0.01  -0.05  -0.08
                     34                     35                     36
                        a                      a                      a 
 Frequencies --   575.9688               582.1149               589.9756
 Red. masses --     9.2499                11.0804                10.9951
 Frc consts  --     0.0000                 0.0000                 0.0000
 IR Inten    --     1.0963                 0.0363                 0.3206
 Raman Activ --     0.0000                 0.0000                 0.0000
 Depolar     --     0.0000                 0.0000                 0.0000
 Atom AN      X      Y      Z        X      Y      Z        X      Y      Z
   1   6    -0.02  -0.09  -0.10    -0.08   0.22   0.17     0.05  -0.18  -0.15
   2   6     0.05   0.02  -0.12     0.00  -0.08   0.27    -0.04   0.09  -0.24
   3   6     0.03   0.01  -0.04    -0.02  -0.10   0.00    -0.06   0.04   0.00
   4   6     0.08  -0.01  -0.11     0.18  -0.15  -0.18    -0.15   0.10   0.15
   5   6    -0.05  -0.05  -0.12    -0.10   0.01  -0.26     0.10  -0.04   0.23
   6   6    -0.02  -0.03  -0.03    -0.11   0.01   0.01     0.02  -0.07   0.00
   7   6    -0.06   0.05  -0.01     0.07   0.15  -0.17    -0.02  -0.01  -0.04
   8   6     0.00  -0.04  -0.01     0.23   0.07   0.03    -0.03   0.04   0.01
   9   6    -0.02   0.02   0.14     0.03  -0.00   0.08    -0.01   0.04   0.05
  10   6    -0.05  -0.21   0.04    -0.03  -0.18   0.09     0.00   0.07   0.03
  11   6    -0.15  -0.03   0.10    -0.18  -0.03   0.03     0.04  -0.00  -0.04
  12   6    -0.03   0.12   0.15    -0.01   0.07   0.01     0.02   0.05   0.06
  13   6    -0.06   0.02  -0.00    -0.14  -0.07  -0.06    -0.28  -0.09  -0.12
  14   6    -0.00  -0.03   0.01     0.03  -0.07  -0.15     0.05  -0.16  -0.25
  15   6     0.17   0.18  -0.12     0.03  -0.00  -0.02     0.09   0.01  -0.04
  16   6     0.09  -0.05   0.11     0.09   0.02   0.05     0.16   0.01   0.13
  17   6     0.03   0.05   0.06    -0.02   0.05   0.08    -0.05   0.18   0.12
  18   6     0.08   0.16  -0.22    -0.02   0.01  -0.02    -0.05   0.06  -0.07
  19   6     0.04  -0.09   0.11     0.03   0.08  -0.06     0.04   0.14  -0.14
  20   6    -0.05  -0.02   0.06     0.04  -0.04  -0.08     0.15  -0.10  -0.13
  21   6    -0.19  -0.06  -0.20     0.01  -0.02   0.02     0.05  -0.05   0.07
  22   6    -0.00   0.06  -0.01    -0.10  -0.11   0.08    -0.14  -0.23   0.15
  23   6     0.03  -0.01   0.01    -0.05   0.06   0.15    -0.12   0.11   0.25
  24   6    -0.23  -0.12  -0.09     0.01   0.03   0.02     0.04   0.08   0.03
  25   6     0.04  -0.01  -0.01     0.12   0.20  -0.06     0.02  -0.05  -0.01
  26   6    -0.03   0.07  -0.01     0.18   0.04   0.15    -0.02  -0.02   0.03
  27   6    -0.09   0.07   0.15     0.07  -0.03  -0.02     0.05  -0.00  -0.07
  28   6     0.07   0.15   0.08    -0.07  -0.17  -0.01     0.01   0.05   0.04
  29   6     0.22  -0.00   0.02    -0.19   0.01  -0.08     0.07  -0.02  -0.03
  30   6    -0.00   0.03   0.14    -0.00   0.02  -0.08     0.04  -0.02  -0.05
  31   1    -0.02  -0.03  -0.03     0.02   0.11   0.01     0.03  -0.04  -0.01
  32   1     0.04   0.02  -0.04     0.04  -0.01   0.06     0.01   0.06  -0.05
  33   1     0.04   0.01  -0.04     0.11  -0.01  -0.02    -0.03   0.04   0.01
  34   1    -0.03  -0.03  -0.03    -0.01   0.04  -0.06     0.07  -0.00   0.04
  35   1    -0.04  -0.04  -0.06     0.00   0.01  -0.09    -0.01  -0.03  -0.04
  36   1    -0.00  -0.09  -0.08     0.06  -0.00   0.00    -0.01  -0.00  -0.02
  37   1    -0.00  -0.11  -0.07     0.01  -0.06  -0.00     0.00  -0.00  -0.03
  38   1    -0.04  -0.04  -0.03    -0.05  -0.01  -0.02     0.01  -0.04  -0.06
  39   1    -0.07  -0.07   0.10    -0.05  -0.03   0.01    -0.10  -0.03   0.02
  40   1    -0.05  -0.10   0.10     0.02  -0.01  -0.04     0.03  -0.04  -0.06
  41   1    -0.04  -0.11   0.10     0.02  -0.01   0.01     0.03  -0.05   0.04
  42   1    -0.04  -0.05   0.10    -0.01   0.01   0.02    -0.04   0.03   0.05
  43   1     0.12   0.01   0.09    -0.00   0.02  -0.01    -0.04   0.03  -0.04
  44   1     0.07   0.03   0.09     0.01  -0.02  -0.02     0.01  -0.05  -0.05
  45   1     0.09   0.06   0.09    -0.04  -0.04  -0.00    -0.06  -0.09  -0.01
  46   1     0.12   0.03   0.09    -0.01   0.02   0.04    -0.03   0.04   0.06
  47   1     0.08  -0.03  -0.08     0.01   0.06  -0.01    -0.00  -0.01   0.03
  48   1     0.04   0.02  -0.07     0.01   0.01   0.09    -0.03   0.00   0.04
  49   1     0.05   0.03  -0.03    -0.02  -0.04   0.02    -0.03   0.03   0.06
  50   1     0.10  -0.03  -0.08    -0.06   0.03   0.01     0.00   0.01   0.03
                     37                     38                     39
                        a                      a                      a 
 Frequencies --   591.3271               599.5933               601.5987
 Red. masses --    10.9310                11.2678                11.2720
 Frc consts  --     0.0000                 0.0000                 0.0000
 IR Inten    --     0.5682                 0.1522                 0.4007
 Raman Activ --     0.0000                 0.0000                 0.0000
 Depolar     --     0.0000                 0.0000                 0.0000
 Atom AN      X      Y      Z        X      Y      Z        X      Y      Z
   1   6    -0.04  -0.09  -0.02     0.00  -0.01   0.01     0.08  -0.24  -0.14
   2   6     0.05   0.01  -0.04     0.00  -0.02   0.00    -0.02   0.10  -0.26
   3   6     0.00  -0.00  -0.02     0.00   0.00   0.00    -0.06   0.05  -0.04
   4   6     0.09   0.02  -0.02     0.01  -0.01   0.01    -0.20   0.15   0.15
   5   6    -0.02  -0.05  -0.03     0.02  -0.01  -0.00     0.12  -0.03   0.25
   6   6    -0.00  -0.01  -0.02    -0.00  -0.00   0.00     0.03  -0.06   0.04
   7   6    -0.09  -0.19   0.22    -0.03  -0.13   0.11     0.04   0.19  -0.17
   8   6    -0.30  -0.08  -0.04    -0.18  -0.02  -0.02     0.24   0.04   0.01
   9   6    -0.03   0.04  -0.03    -0.05   0.04   0.00     0.04  -0.04   0.03
  10   6     0.06   0.17  -0.09     0.01   0.18  -0.05    -0.04  -0.23   0.07
  11   6     0.24  -0.02  -0.01     0.16  -0.01  -0.05    -0.24   0.04   0.06
  12   6     0.02  -0.05   0.06     0.04  -0.01   0.04    -0.05   0.04  -0.04
  13   6     0.12   0.06   0.09    -0.24  -0.03  -0.15     0.09   0.01   0.05
  14   6    -0.06   0.12   0.14     0.06  -0.20  -0.19    -0.01   0.07   0.07
  15   6     0.03   0.11  -0.05     0.06  -0.06   0.00    -0.04  -0.02   0.01
  16   6    -0.10   0.02  -0.09     0.18  -0.06   0.20    -0.04   0.00  -0.07
  17   6     0.01  -0.12  -0.07    -0.01   0.26   0.09     0.02  -0.10  -0.02
  18   6     0.08   0.05  -0.10    -0.07   0.04   0.03     0.02  -0.03   0.04
  19   6     0.00   0.10  -0.10     0.03  -0.18   0.21    -0.00  -0.04   0.07
  20   6     0.11  -0.04  -0.08    -0.24   0.09   0.11    -0.09   0.05   0.03
  21   6    -0.07  -0.07  -0.09    -0.01   0.08   0.02    -0.03   0.02  -0.04
  22   6    -0.08  -0.10   0.11     0.08   0.21  -0.17     0.03   0.08  -0.06
  23   6    -0.09   0.10   0.15     0.16  -0.13  -0.20     0.05  -0.03  -0.07
  24   6    -0.12  -0.00  -0.04     0.04  -0.07   0.00    -0.03  -0.04  -0.01
  25   6     0.15   0.26  -0.07     0.06   0.17  -0.03     0.10   0.22  -0.04
  26   6     0.22   0.05   0.20     0.14   0.00   0.10     0.20  -0.00   0.15
  27   6     0.05  -0.03   0.05     0.00  -0.04   0.04     0.03  -0.05   0.04
  28   6    -0.04  -0.24   0.02    -0.04  -0.16  -0.03    -0.02  -0.25  -0.04
  29   6    -0.19  -0.02  -0.08    -0.18   0.04  -0.04    -0.23   0.01  -0.05
  30   6    -0.03   0.04  -0.03    -0.02   0.05   0.00    -0.03   0.05  -0.03
  31   1    -0.00  -0.02  -0.01     0.01   0.00   0.00     0.03  -0.07  -0.01
  32   1     0.04   0.02  -0.01     0.01   0.00  -0.00    -0.01   0.07  -0.04
  33   1     0.02  -0.00  -0.01    -0.01  -0.01   0.00    -0.05   0.05   0.01
  34   1    -0.03  -0.03  -0.01    -0.01  -0.01   0.00     0.07  -0.02   0.03
  35   1     0.01  -0.04   0.06     0.01  -0.03   0.03    -0.03   0.04  -0.04
  36   1    -0.07  -0.03  -0.05    -0.04   0.01  -0.03     0.05  -0.00   0.04
  37   1    -0.01   0.04  -0.02    -0.01   0.04  -0.02     0.02  -0.06   0.01
  38   1     0.06  -0.03   0.00     0.03  -0.04  -0.02    -0.05   0.04   0.00
  39   1     0.02  -0.02   0.05    -0.07   0.02  -0.01     0.03  -0.00  -0.01
  40   1    -0.06  -0.02   0.07     0.06  -0.04  -0.04    -0.01   0.02   0.01
  41   1    -0.06  -0.03   0.02     0.05  -0.04   0.03     0.00   0.03  -0.03
  42   1    -0.02  -0.08   0.05    -0.02   0.08  -0.01     0.02  -0.01  -0.02
  43   1     0.05   0.05   0.01     0.03  -0.06   0.04     0.03  -0.00   0.02
  44   1     0.08  -0.00   0.04    -0.07   0.04  -0.01    -0.00   0.03   0.02
  45   1     0.02  -0.02   0.05     0.00   0.07  -0.02     0.01   0.03   0.01
  46   1     0.04   0.06   0.07     0.02  -0.07  -0.04     0.02  -0.01  -0.01
  47   1     0.04   0.06  -0.06    -0.00   0.04  -0.03     0.01   0.05  -0.04
  48   1     0.04  -0.02   0.06     0.03  -0.02   0.02     0.04  -0.03   0.04
  49   1     0.01  -0.06   0.01     0.03  -0.05  -0.02     0.02  -0.06  -0.00
  50   1    -0.04   0.02  -0.02    -0.04   0.02  -0.02    -0.06   0.03  -0.00
                     40                     41                     42
                        a                      a                      a 
 Frequencies --   627.2013               627.7988               675.8078
 Red. masses --    11.0300                10.9733                10.1358
 Frc consts  --     0.0000                 0.0000                 0.0000
 IR Inten    --     0.6304                 0.0568                13.3437
 Raman Activ --     0.0000                 0.0000                 0.0000
 Depolar     --     0.0000                 0.0000                 0.0000
 Atom AN      X      Y      Z        X      Y      Z        X      Y      Z
   1   6     0.11   0.12   0.03     0.12  -0.11   0.05    -0.10  -0.14   0.01
   2   6    -0.11  -0.11   0.06     0.11  -0.11   0.03     0.10   0.12  -0.04
   3   6     0.06   0.06   0.03    -0.03  -0.12  -0.25    -0.20  -0.17  -0.06
   4   6    -0.14  -0.07   0.04    -0.08   0.14  -0.05     0.16   0.07  -0.01
   5   6     0.13   0.08   0.04    -0.08   0.13  -0.03    -0.14  -0.07  -0.02
   6   6    -0.07  -0.05   0.05    -0.10   0.02   0.26     0.20   0.14  -0.09
   7   6     0.07  -0.10  -0.07     0.09  -0.05   0.13    -0.06   0.06  -0.05
   8   6     0.08  -0.02   0.12     0.05  -0.13  -0.02    -0.04   0.09   0.05
   9   6    -0.09  -0.09   0.03    -0.18  -0.06   0.18     0.08   0.05  -0.04
  10   6    -0.04   0.16   0.03    -0.11  -0.01  -0.14     0.07  -0.00   0.11
  11   6    -0.00  -0.00  -0.17    -0.11   0.12   0.02     0.09  -0.07   0.02
  12   6     0.13   0.16   0.02     0.14   0.11  -0.05    -0.04   0.07   0.16
  13   6     0.09  -0.12   0.02     0.10   0.03  -0.07    -0.06  -0.12   0.09
  14   6     0.14  -0.07  -0.01    -0.03  -0.08   0.08     0.11   0.01  -0.10
  15   6     0.12   0.16   0.14     0.08   0.13   0.02    -0.11  -0.16   0.16
  16   6    -0.12   0.10  -0.03    -0.07  -0.04   0.16    -0.02   0.13  -0.09
  17   6    -0.16   0.02   0.03     0.04   0.16  -0.05    -0.12  -0.07   0.10
  18   6    -0.06  -0.07  -0.26    -0.03  -0.06  -0.00     0.01   0.03  -0.17
  19   6    -0.07   0.14  -0.03    -0.07  -0.07  -0.15    -0.13   0.05  -0.09
  20   6     0.02   0.16   0.01     0.17  -0.01   0.03     0.11   0.10   0.08
  21   6     0.05   0.02  -0.27    -0.07  -0.02   0.02    -0.05  -0.01  -0.16
  22   6     0.09  -0.12   0.02     0.06   0.10   0.06     0.14   0.03   0.07
  23   6     0.03  -0.15  -0.00    -0.09  -0.01  -0.07    -0.05  -0.11  -0.09
  24   6    -0.17  -0.07   0.16     0.15   0.05  -0.04     0.20   0.08   0.14
  25   6     0.00  -0.07   0.13    -0.11   0.08   0.02    -0.07   0.07   0.05
  26   6     0.08  -0.10  -0.07    -0.04   0.09  -0.13    -0.05   0.07  -0.05
  27   6    -0.18  -0.08   0.04     0.15   0.11   0.03    -0.04   0.07   0.16
  28   6    -0.01  -0.01  -0.17     0.08  -0.13  -0.02     0.05  -0.11   0.02
  29   6    -0.14   0.08   0.04    -0.02  -0.10   0.14    -0.01  -0.06   0.11
  30   6     0.10   0.06   0.01    -0.12  -0.17  -0.16    -0.07  -0.06  -0.03
  31   1     0.05   0.05   0.00     0.05  -0.00  -0.05    -0.05  -0.06   0.01
  32   1    -0.04  -0.04   0.01     0.03   0.03   0.06     0.07   0.07  -0.01
  33   1    -0.06  -0.03   0.01     0.02   0.05   0.05     0.07   0.03   0.01
  34   1     0.05   0.03   0.00     0.03   0.02  -0.06    -0.09  -0.05   0.01
  35   1    -0.02  -0.06  -0.04    -0.02  -0.04   0.02    -0.01  -0.06  -0.12
  36   1     0.03   0.01   0.01     0.04  -0.02  -0.07    -0.01  -0.04  -0.06
  37   1     0.03   0.06   0.02     0.02  -0.02  -0.08     0.00  -0.04  -0.02
  38   1    -0.01  -0.05  -0.05    -0.05  -0.02   0.02     0.03  -0.07  -0.09
  39   1     0.01  -0.02   0.08     0.03   0.01  -0.01     0.00   0.01   0.01
  40   1    -0.02  -0.06  -0.02    -0.04  -0.04   0.02     0.06   0.06  -0.09
  41   1    -0.04  -0.03  -0.04    -0.04  -0.05   0.06     0.03   0.07  -0.08
  42   1    -0.02  -0.00   0.07     0.04   0.06  -0.01    -0.01  -0.00   0.02
  43   1     0.03   0.03  -0.04    -0.06  -0.03  -0.05    -0.09  -0.01  -0.07
  44   1     0.02   0.02   0.07     0.07   0.02  -0.00     0.01   0.01   0.02
  45   1     0.02  -0.01   0.08     0.02   0.02   0.01    -0.00   0.00   0.01
  46   1     0.06   0.00  -0.02    -0.06  -0.03  -0.01    -0.08  -0.05  -0.08
  47   1    -0.02  -0.03   0.02     0.00   0.05   0.07     0.04  -0.00  -0.07
  48   1     0.06   0.00  -0.05    -0.05  -0.01  -0.01     0.04  -0.02  -0.13
  49   1     0.04  -0.00  -0.06    -0.03  -0.04  -0.01     0.05  -0.05  -0.09
  50   1    -0.06  -0.01   0.02    -0.00   0.03   0.08     0.04  -0.02  -0.03
                     43                     44                     45
                        a                      a                      a 
 Frequencies --   677.2213               694.5070               701.2677
 Red. masses --    10.1932                11.2956                11.2685
 Frc consts  --     0.0000                 0.0000                 0.0000
 IR Inten    --    12.5519                 0.1338                 0.2477
 Raman Activ --     0.0000                 0.0000                 0.0000
 Depolar     --     0.0000                 0.0000                 0.0000
 Atom AN      X      Y      Z        X      Y      Z        X      Y      Z
   1   6    -0.09   0.05  -0.03    -0.13  -0.05   0.12    -0.06   0.07  -0.02
   2   6    -0.09   0.04  -0.04     0.10   0.13   0.11    -0.06   0.08  -0.02
   3   6    -0.08  -0.03   0.08    -0.21  -0.20  -0.09    -0.01   0.04   0.11
   4   6     0.03  -0.09   0.04     0.09   0.13   0.10     0.05  -0.08   0.02
   5   6     0.02  -0.10   0.05    -0.14  -0.05   0.12     0.06  -0.07   0.03
   6   6    -0.06  -0.07  -0.07     0.24   0.15  -0.12     0.03  -0.03  -0.11
   7   6     0.01  -0.07  -0.14     0.11   0.08   0.09     0.01   0.13  -0.00
   8   6     0.06   0.05   0.14     0.12  -0.04  -0.10     0.02   0.04  -0.14
   9   6     0.03  -0.13  -0.24    -0.12   0.04   0.25     0.01   0.11   0.14
  10   6    -0.04   0.14   0.10     0.02   0.02  -0.17     0.07  -0.04  -0.07
  11   6     0.00  -0.07  -0.15     0.02   0.14   0.04     0.09   0.05   0.08
  12   6     0.06   0.16   0.13     0.00  -0.11  -0.17    -0.10  -0.19  -0.10
  13   6     0.12  -0.00  -0.04     0.07  -0.04  -0.06    -0.03   0.02  -0.18
  14   6    -0.02  -0.10   0.09     0.04  -0.09  -0.00    -0.12  -0.13  -0.02
  15   6     0.07   0.10   0.03     0.09   0.13   0.03     0.14   0.21  -0.11
  16   6    -0.12  -0.03   0.10    -0.09  -0.01   0.02    -0.10  -0.12   0.02
  17   6    -0.04   0.13  -0.05    -0.04   0.04  -0.04     0.05   0.02  -0.16
  18   6    -0.10  -0.16   0.14    -0.06  -0.08  -0.01    -0.05  -0.10   0.26
  19   6    -0.07  -0.12  -0.08     0.04   0.09   0.01    -0.14  -0.06   0.00
  20   6     0.12  -0.07   0.04    -0.04   0.05  -0.04     0.04   0.06   0.15
  21   6    -0.19  -0.07  -0.12     0.09   0.04  -0.01    -0.13  -0.04  -0.25
  22   6     0.03   0.12   0.03     0.02  -0.09  -0.06     0.03  -0.02   0.18
  23   6    -0.11   0.00  -0.08     0.08  -0.06  -0.01    -0.16  -0.08   0.04
  24   6     0.11   0.04  -0.05    -0.15  -0.05   0.05     0.24   0.09   0.09
  25   6     0.05   0.04  -0.15     0.00  -0.14  -0.09     0.06   0.02   0.13
  26   6    -0.05   0.04   0.15    -0.10  -0.08   0.10     0.13  -0.02  -0.01
  27   6     0.16   0.01  -0.14     0.10  -0.04  -0.18    -0.20  -0.04   0.12
  28   6    -0.06   0.03   0.15    -0.14   0.02   0.05     0.06   0.07  -0.09
  29   6     0.11  -0.08  -0.10    -0.04  -0.02  -0.16    -0.02   0.09   0.06
  30   6    -0.10   0.08   0.24     0.01   0.15   0.24     0.09  -0.03  -0.15
  31   1     0.05   0.08  -0.00    -0.04  -0.02   0.06    -0.03  -0.00   0.04
  32   1     0.07   0.07  -0.03     0.00   0.04   0.05    -0.03  -0.02  -0.03
  33   1     0.09   0.03  -0.01     0.03   0.03   0.05    -0.02  -0.03  -0.03
  34   1     0.09   0.05   0.01    -0.03   0.01   0.05    -0.03  -0.02   0.04
  35   1    -0.01  -0.02  -0.04     0.03  -0.01  -0.01     0.05   0.07   0.03
  36   1     0.02   0.06   0.10     0.05   0.01  -0.06    -0.00   0.04   0.02
  37   1    -0.01   0.07   0.07     0.05   0.01  -0.06     0.01  -0.02  -0.02
  38   1    -0.00  -0.04  -0.04     0.00   0.03   0.00     0.04   0.05   0.01
  39   1     0.08   0.08  -0.08    -0.00  -0.03   0.04    -0.01  -0.03  -0.06
  40   1     0.01   0.02  -0.03    -0.03  -0.06   0.00    -0.03  -0.01  -0.04
  41   1    -0.01   0.01  -0.01    -0.03  -0.03  -0.02    -0.03  -0.05   0.00
  42   1     0.03   0.09  -0.06     0.00   0.02   0.00    -0.01  -0.00  -0.06
  43   1     0.00  -0.01   0.02     0.03   0.02  -0.02    -0.05  -0.02   0.00
  44   1     0.10   0.01   0.05    -0.02  -0.00   0.00     0.00  -0.00   0.06
  45   1     0.11   0.06   0.07     0.03  -0.01   0.03    -0.02  -0.00   0.06
  46   1     0.03   0.01   0.03     0.07   0.02  -0.01    -0.02  -0.02   0.05
  47   1     0.05  -0.01  -0.10    -0.03  -0.05  -0.06     0.04  -0.01  -0.02
  48   1    -0.02   0.00   0.04    -0.00  -0.03  -0.01     0.08   0.02  -0.03
  49   1    -0.03   0.01   0.05    -0.03   0.00   0.01     0.05   0.02  -0.02
  50   1     0.06  -0.03  -0.08    -0.03  -0.05  -0.06    -0.01   0.02   0.02
                     46                     47                     48
                        a                      a                      a 
 Frequencies --   707.3120               751.9921               753.3663
 Red. masses --    11.2681                11.2223                11.1980
 Frc consts  --     0.0000                 0.0000                 0.0000
 IR Inten    --     0.0677                 2.5643                 3.0175
 Raman Activ --     0.0000                 0.0000                 0.0000
 Depolar     --     0.0000                 0.0000                 0.0000
 Atom AN      X      Y      Z        X      Y      Z        X      Y      Z
   1   6     0.07   0.09  -0.03     0.16  -0.14   0.05    -0.08  -0.01   0.09
   2   6    -0.06  -0.07   0.01     0.16  -0.13   0.08     0.04   0.03   0.08
   3   6     0.18   0.15   0.06     0.06  -0.02  -0.17    -0.13  -0.13  -0.10
   4   6    -0.10  -0.04  -0.01    -0.10   0.19  -0.05     0.04   0.08   0.08
   5   6     0.08   0.04   0.00    -0.09   0.18  -0.08    -0.03  -0.03   0.09
   6   6    -0.19  -0.13   0.08     0.01   0.08   0.16     0.14   0.08  -0.12
   7   6     0.02   0.04   0.11    -0.09  -0.02  -0.04     0.10  -0.18   0.06
   8   6    -0.02  -0.05  -0.10    -0.14   0.06   0.04     0.11  -0.12   0.08
   9   6    -0.06   0.10   0.24     0.13   0.02  -0.18    -0.08  -0.12  -0.06
  10   6     0.03  -0.07  -0.10    -0.00  -0.08   0.14    -0.13   0.09  -0.08
  11   6    -0.00   0.08   0.07    -0.02  -0.10   0.02    -0.17   0.06  -0.11
  12   6    -0.05  -0.17  -0.18     0.03   0.12   0.14     0.14   0.13  -0.05
  13   6    -0.08  -0.06   0.07    -0.14   0.10  -0.08    -0.07   0.07   0.07
  14   6     0.07   0.06  -0.09    -0.13   0.04  -0.02    -0.06   0.17   0.02
  15   6    -0.14  -0.19   0.10     0.05   0.07  -0.13    -0.13  -0.17  -0.07
  16   6     0.05   0.10  -0.05     0.07  -0.10  -0.03     0.19   0.01   0.02
  17   6    -0.02  -0.07   0.10     0.12  -0.09  -0.11     0.09  -0.03   0.07
  18   6     0.08   0.12  -0.22     0.05   0.04   0.20     0.08   0.10  -0.11
  19   6    -0.11  -0.03  -0.04    -0.08   0.09   0.03    -0.06  -0.18   0.04
  20   6     0.08   0.01   0.09    -0.04   0.15   0.11     0.01  -0.10   0.07
  21   6    -0.15  -0.06  -0.21     0.03   0.02  -0.21    -0.13  -0.06  -0.09
  22   6     0.08   0.06   0.06     0.06  -0.15   0.08    -0.05   0.09   0.07
  23   6    -0.08  -0.06  -0.08    -0.00  -0.14   0.03    -0.15   0.10   0.03
  24   6     0.23   0.10   0.08     0.10   0.05   0.12     0.19   0.07  -0.10
  25   6     0.04  -0.00  -0.11     0.02  -0.15  -0.03     0.10  -0.13   0.08
  26   6    -0.03   0.00   0.11    -0.04  -0.09   0.05     0.15  -0.14   0.06
  27   6     0.16  -0.01  -0.19     0.11  -0.02  -0.15    -0.16  -0.11  -0.02
  28   6    -0.07   0.03   0.08    -0.11   0.01  -0.02    -0.02   0.17  -0.12
  29   6     0.05  -0.06  -0.10    -0.09   0.01  -0.14    -0.06   0.14  -0.08
  30   6    -0.06   0.10   0.24     0.07   0.13   0.17     0.13   0.04  -0.07
  31   1     0.02   0.03  -0.02     0.01  -0.06  -0.04     0.03   0.03   0.04
  32   1    -0.05  -0.06  -0.01    -0.01  -0.03   0.06     0.01   0.03   0.04
  33   1    -0.03  -0.01  -0.01    -0.05   0.03   0.04    -0.03  -0.02   0.04
  34   1     0.07   0.03  -0.01    -0.04  -0.01  -0.06    -0.03   0.01   0.05
  35   1     0.01   0.03   0.05    -0.03   0.00  -0.00    -0.03  -0.05   0.04
  36   1    -0.00  -0.02  -0.06    -0.05  -0.03   0.00     0.05  -0.00   0.00
  37   1     0.02  -0.02  -0.04    -0.04  -0.06  -0.01     0.00   0.06   0.01
  38   1     0.00   0.05   0.04    -0.00  -0.04   0.00    -0.07   0.00   0.04
  39   1    -0.03  -0.03   0.05    -0.04  -0.02  -0.05    -0.01   0.02  -0.00
  40   1     0.03   0.03  -0.03    -0.01   0.04  -0.00     0.01   0.04   0.06
  41   1     0.02   0.04  -0.01     0.01  -0.03   0.02     0.02  -0.00   0.08
  42   1    -0.00  -0.03   0.05    -0.03  -0.07  -0.02     0.01  -0.02   0.02
  43   1    -0.05  -0.01  -0.01    -0.03   0.01  -0.02     0.00  -0.01   0.08
  44   1     0.03   0.00   0.04    -0.07  -0.01   0.03     0.02  -0.02   0.02
  45   1     0.04   0.03   0.04    -0.02  -0.03   0.06    -0.02   0.02  -0.00
  46   1    -0.04  -0.03  -0.03     0.03  -0.01   0.00    -0.03   0.01   0.06
  47   1     0.02  -0.01  -0.06    -0.05  -0.04   0.01    -0.01  -0.04   0.01
  48   1    -0.03  -0.00   0.06    -0.01  -0.03   0.01     0.06   0.02   0.04
  49   1    -0.05   0.01   0.04    -0.04   0.01   0.00     0.02   0.07   0.04
  50   1     0.01  -0.03  -0.04    -0.07  -0.02   0.01    -0.05   0.02   0.01
                     49                     50                     51
                        a                      a                      a 
 Frequencies --   775.8070               782.9298               794.4707
 Red. masses --     5.7471                 4.2374                 4.7837
 Frc consts  --     0.0000                 0.0000                 0.0000
 IR Inten    --     0.4611                 5.4354                37.0553
 Raman Activ --     0.0000                 0.0000                 0.0000
 Depolar     --     0.0000                 0.0000                 0.0000
 Atom AN      X      Y      Z        X      Y      Z        X      Y      Z
   1   6    -0.08   0.03  -0.01    -0.12  -0.11   0.11    -0.03  -0.01   0.05
   2   6    -0.10   0.00  -0.03    -0.13  -0.18  -0.06    -0.07  -0.12  -0.01
   3   6    -0.02   0.01   0.06    -0.08   0.08  -0.03     0.03   0.09   0.00
   4   6     0.01  -0.08   0.01     0.14   0.09   0.09     0.02   0.03   0.04
   5   6    -0.02  -0.10   0.04     0.21   0.08  -0.09     0.13   0.04  -0.02
   6   6    -0.00  -0.03  -0.06    -0.06   0.10  -0.04    -0.10  -0.01   0.01
   7   6     0.02  -0.15  -0.06    -0.02  -0.06  -0.10     0.08   0.08   0.16
   8   6     0.07  -0.10  -0.07     0.03   0.00  -0.10     0.02   0.04   0.17
   9   6    -0.04  -0.07   0.01     0.01   0.01   0.06    -0.00   0.01  -0.11
  10   6    -0.07   0.04  -0.07    -0.02  -0.02   0.03     0.00   0.02  -0.02
  11   6    -0.08   0.03  -0.08     0.02   0.04   0.06    -0.04   0.02   0.03
  12   6     0.09   0.06   0.00     0.03  -0.02   0.03    -0.07  -0.09  -0.12
  13   6    -0.04   0.12  -0.11     0.01  -0.00  -0.01    -0.03  -0.02   0.07
  14   6    -0.01   0.15  -0.05     0.02  -0.00  -0.01    -0.08  -0.04   0.05
  15   6    -0.04  -0.02  -0.07    -0.01  -0.00   0.02     0.07   0.06  -0.05
  16   6     0.12  -0.04  -0.03    -0.02   0.00  -0.01     0.02  -0.02   0.02
  17   6     0.12  -0.05  -0.05    -0.01  -0.01   0.01     0.00  -0.00  -0.01
  18   6     0.02   0.06   0.08    -0.00   0.01  -0.01     0.01  -0.02  -0.00
  19   6     0.00   0.13   0.03    -0.00   0.02  -0.01     0.02  -0.02   0.02
  20   6    -0.01   0.13   0.05     0.01   0.01   0.01     0.00  -0.00  -0.01
  21   6     0.06  -0.00  -0.08    -0.01   0.00  -0.01     0.01  -0.02  -0.00
  22   6     0.12  -0.06   0.10     0.00  -0.01  -0.01     0.04   0.03   0.07
  23   6     0.14  -0.05   0.04    -0.00  -0.02  -0.01     0.07   0.07   0.04
  24   6    -0.03  -0.03   0.08     0.01   0.01   0.02    -0.08  -0.06  -0.04
  25   6    -0.07   0.09   0.07    -0.02  -0.04  -0.10    -0.03   0.01   0.17
[...]
  29   6     0.03  -0.02   0.02     0.02  -0.01   0.01     0.02  -0.01   0.01
  30   6     0.00   0.00   0.00     0.00   0.00   0.00    -0.00  -0.00   0.00
  31   1     0.00  -0.01  -0.00     0.01  -0.01  -0.00    -0.00   0.00   0.00
  32   1    -0.00   0.01  -0.01     0.00  -0.00   0.00     0.00  -0.00   0.00
  33   1     0.00  -0.01  -0.00    -0.00   0.01   0.00    -0.00   0.01   0.00
  34   1    -0.00   0.00  -0.01    -0.00   0.00  -0.00    -0.00   0.00  -0.00
  35   1    -0.00   0.02  -0.01     0.00  -0.01   0.01     0.01  -0.03   0.02
  36   1     0.11  -0.03   0.03    -0.10   0.03  -0.02    -0.17   0.05  -0.04
  37   1    -0.03   0.12  -0.07     0.04  -0.12   0.08    -0.01   0.02  -0.01
  38   1     0.04  -0.01   0.01    -0.05   0.01  -0.01     0.01  -0.00   0.00
  39   1    -0.19   0.05  -0.06     0.31  -0.08   0.09    -0.18   0.05  -0.05
  40   1     0.22  -0.29  -0.16    -0.28   0.37   0.21     0.16  -0.21  -0.12
  41   1    -0.23   0.08  -0.09     0.21  -0.07   0.09     0.33  -0.12   0.14
  42   1    -0.19   0.30   0.14     0.10  -0.15  -0.07     0.19  -0.29  -0.14
  43   1    -0.03   0.26  -0.12    -0.04   0.36  -0.17     0.02  -0.18   0.08
  44   1    -0.26   0.30   0.16    -0.21   0.25   0.13     0.13  -0.15  -0.08
  45   1    -0.01   0.18  -0.07    -0.01   0.16  -0.06    -0.01   0.32  -0.12
  46   1     0.19  -0.28  -0.15     0.14  -0.20  -0.11     0.27  -0.38  -0.21
  47   1     0.00  -0.13   0.04     0.00  -0.17   0.05    -0.00   0.10  -0.03
  48   1    -0.02   0.01  -0.01    -0.02   0.01  -0.02     0.02  -0.01   0.01
  49   1     0.00  -0.04   0.01     0.00  -0.03   0.01     0.00  -0.04   0.01
  50   1    -0.11   0.06  -0.07    -0.08   0.04  -0.05    -0.08   0.04  -0.05
                    133                    134                    135
                        a                      a                      a 
 Frequencies --  3065.3634              3065.5473              3067.6500
 Red. masses --     1.8010                 1.7996                 1.8055
 Frc consts  --     0.0000                 0.0000                 0.0000
 IR Inten    --    43.1661                 7.2575                15.6511
 Raman Activ --     0.0000                 0.0000                 0.0000
 Depolar     --     0.0000                 0.0000                 0.0000
 Atom AN      X      Y      Z        X      Y      Z        X      Y      Z
   1   6     0.03  -0.04  -0.01    -0.04   0.05   0.01    -0.08   0.10   0.02
   2   6    -0.01   0.01  -0.01     0.02  -0.02   0.03     0.03  -0.04   0.06
   3   6     0.00  -0.00  -0.00     0.00  -0.00  -0.00     0.00  -0.00  -0.00
   4   6     0.02  -0.03  -0.01     0.04  -0.06  -0.01     0.07  -0.11  -0.02
   5   6    -0.01   0.01  -0.01    -0.02   0.02  -0.03    -0.04   0.04  -0.06
   6   6     0.00  -0.00  -0.00    -0.00   0.00   0.00    -0.00   0.00   0.00
   7   6    -0.01   0.03  -0.02    -0.01   0.05  -0.03    -0.00   0.01  -0.00
   8   6     0.14  -0.04   0.04     0.15  -0.04   0.04    -0.08   0.02  -0.02
   9   6     0.00   0.00  -0.00     0.01   0.00  -0.00    -0.00  -0.00   0.00
  10   6    -0.00   0.01  -0.00    -0.01   0.01  -0.01    -0.00   0.02  -0.01
  11   6     0.01  -0.00   0.00    -0.02   0.01  -0.00    -0.05   0.02  -0.01
  12   6     0.00   0.00  -0.00    -0.00   0.00  -0.00    -0.00  -0.00   0.00
  13   6    -0.02   0.01  -0.01     0.01  -0.00   0.00     0.01  -0.00   0.00
  14   6    -0.00   0.00   0.00    -0.00   0.00   0.00     0.01  -0.01  -0.01
  15   6     0.00   0.00   0.00    -0.00   0.00   0.00    -0.00  -0.00  -0.00
  16   6     0.02  -0.01   0.01     0.02  -0.01   0.01    -0.01   0.00  -0.00
  17   6     0.02  -0.04  -0.02     0.03  -0.04  -0.02    -0.01   0.02   0.01
  18   6    -0.00  -0.00  -0.00    -0.00  -0.00  -0.00     0.00   0.00   0.00
  19   6     0.00  -0.02   0.01    -0.00   0.02  -0.01     0.00  -0.01   0.00
  20   6     0.03  -0.04  -0.02    -0.03   0.03   0.02     0.01  -0.02  -0.01
  21   6     0.00   0.00  -0.00    -0.00   0.00   0.00     0.00  -0.00  -0.00
  22   6    -0.00   0.02  -0.01    -0.00   0.01  -0.01    -0.00   0.01  -0.00
  23   6    -0.00   0.01   0.00     0.00  -0.00  -0.00    -0.01   0.01   0.01
  24   6    -0.00   0.00   0.00     0.00  -0.00  -0.00    -0.00   0.00   0.00
  25   6     0.01  -0.17   0.05    -0.01   0.13  -0.04     0.00  -0.09   0.03
  26   6    -0.04   0.02  -0.03     0.04  -0.02   0.03     0.01  -0.00   0.00
  27   6    -0.00   0.00  -0.00     0.00  -0.00   0.00    -0.00  -0.00  -0.00
  28   6     0.00  -0.00   0.00     0.00  -0.03   0.01     0.00  -0.05   0.01
  29   6    -0.01   0.01  -0.01     0.01  -0.01   0.01     0.01  -0.01   0.01
  30   6    -0.00  -0.00   0.00     0.00   0.00  -0.00    -0.00  -0.00  -0.00
  31   1    -0.12   0.15   0.04     0.15  -0.19  -0.04     0.29  -0.37  -0.09
  32   1     0.03  -0.04   0.05    -0.06   0.07  -0.10    -0.12   0.16  -0.20
  33   1    -0.08   0.12   0.03    -0.16   0.22   0.05    -0.27   0.38   0.09
  34   1     0.02  -0.02   0.03     0.07  -0.08   0.10     0.14  -0.15   0.20
  35   1     0.04  -0.13   0.09     0.06  -0.17   0.12     0.00  -0.01   0.01
  36   1    -0.51   0.14  -0.13    -0.55   0.15  -0.14     0.30  -0.08   0.08
  37   1     0.01  -0.02   0.01     0.01  -0.04   0.03     0.01  -0.05   0.03
  38   1    -0.02   0.01  -0.00     0.08  -0.02   0.02     0.19  -0.05   0.04
  39   1     0.08  -0.02   0.02    -0.03   0.01  -0.01    -0.04   0.01  -0.01
  40   1     0.01  -0.02  -0.01     0.00  -0.01  -0.00    -0.03   0.04   0.02
  41   1    -0.05   0.02  -0.02    -0.06   0.02  -0.03     0.03  -0.01   0.01
  42   1    -0.08   0.14   0.06    -0.10   0.15   0.07     0.04  -0.07  -0.03
  43   1    -0.01   0.06  -0.03     0.01  -0.05   0.03    -0.00   0.03  -0.01
  44   1    -0.12   0.14   0.07     0.10  -0.11  -0.06    -0.05   0.06   0.03
  45   1     0.00  -0.07   0.03     0.00  -0.05   0.02     0.00  -0.04   0.01
  46   1     0.01  -0.02  -0.01    -0.00   0.00   0.00     0.02  -0.03  -0.02
  47   1    -0.02   0.60  -0.19     0.02  -0.46   0.15    -0.01   0.31  -0.10
  48   1     0.15  -0.08   0.11    -0.14   0.08  -0.10    -0.01   0.01  -0.01
  49   1    -0.00   0.01  -0.00    -0.00   0.09  -0.02    -0.01   0.19  -0.05
  50   1     0.03  -0.02   0.02    -0.04   0.02  -0.02    -0.05   0.02  -0.03
                    136                    137                    138
                        a                      a                      a 
 Frequencies --  3069.3416              3070.7147              3070.9425
 Red. masses --     1.7988                 1.8536                 1.8541
 Frc consts  --     0.0000                 0.0000                 0.0000
 IR Inten    --     6.4322                 1.6742                51.7667
 Raman Activ --     0.0000                 0.0000                 0.0000
 Depolar     --     0.0000                 0.0000                 0.0000
 Atom AN      X      Y      Z        X      Y      Z        X      Y      Z
   1   6     0.09  -0.12  -0.03     0.02  -0.02  -0.01     0.02  -0.02  -0.01
   2   6    -0.04   0.04  -0.05    -0.00   0.00  -0.01     0.01  -0.01   0.01
   3   6     0.00  -0.00  -0.01    -0.00   0.00   0.00    -0.00   0.00  -0.00
   4   6     0.09  -0.12  -0.03    -0.02   0.03   0.01     0.01  -0.02  -0.00
   5   6    -0.04   0.04  -0.06     0.00  -0.00   0.00     0.01  -0.01   0.01
   6   6    -0.00  -0.00  -0.01     0.00  -0.00  -0.00    -0.00  -0.00  -0.00
   7   6    -0.01   0.01  -0.01     0.00  -0.01   0.00    -0.00   0.01  -0.01
   8   6    -0.05   0.01  -0.01     0.01  -0.00   0.00     0.01  -0.00   0.00
   9   6    -0.00  -0.00   0.00     0.00  -0.00   0.00     0.00  -0.00   0.00
  10   6     0.01  -0.02   0.01     0.00  -0.01   0.01     0.00  -0.00   0.00
  11   6     0.05  -0.01   0.01    -0.04   0.01  -0.01    -0.06   0.02  -0.01
  12   6     0.00   0.00  -0.00    -0.00  -0.00   0.00    -0.00  -0.00   0.00
  13   6     0.00  -0.00   0.00     0.14  -0.04   0.04     0.15  -0.04   0.04
  14   6    -0.00   0.00   0.00     0.05  -0.07  -0.04     0.06  -0.08  -0.04
  15   6     0.00  -0.00  -0.00    -0.00  -0.00  -0.00    -0.00  -0.00  -0.00
  16   6    -0.01   0.00  -0.00    -0.01   0.01  -0.01     0.01  -0.00   0.01
  17   6    -0.01   0.01   0.00    -0.01   0.01   0.00     0.00  -0.00  -0.00
  18   6     0.00   0.00   0.00     0.00   0.00   0.00     0.00   0.00   0.00
  19   6    -0.00   0.01  -0.00     0.00  -0.01   0.01     0.00  -0.01   0.01
  20   6    -0.01   0.01   0.00     0.01  -0.01  -0.00     0.00  -0.00  -0.00
  21   6    -0.00   0.00   0.00     0.00   0.00  -0.00    -0.00  -0.00   0.00
  22   6     0.00  -0.00   0.00    -0.01   0.16  -0.06     0.01  -0.14   0.05
  23   6    -0.00   0.00   0.00    -0.05   0.08   0.04     0.05  -0.07  -0.04
  24   6     0.00  -0.00  -0.00    -0.00  -0.00   0.00     0.00   0.00  -0.00
  25   6    -0.00   0.05  -0.02    -0.00   0.01  -0.00     0.00  -0.01   0.00
  26   6    -0.01   0.01  -0.01    -0.00   0.00  -0.00    -0.01   0.01  -0.01
  27   6    -0.00  -0.00  -0.00    -0.00  -0.00  -0.00     0.00   0.00   0.00
  28   6     0.00  -0.05   0.01     0.00  -0.04   0.01    -0.00   0.06  -0.02
  29   6     0.02  -0.01   0.01    -0.01   0.00  -0.01     0.00  -0.00   0.00
  30   6     0.00   0.00  -0.00    -0.00   0.00  -0.00     0.00  -0.00   0.00
  31   1    -0.34   0.42   0.10    -0.07   0.09   0.02    -0.06   0.08   0.02
  32   1     0.13  -0.16   0.21     0.01  -0.02   0.02    -0.02   0.02  -0.03
  33   1    -0.31   0.44   0.10     0.07  -0.10  -0.02    -0.05   0.07   0.02
  34   1     0.14  -0.15   0.21    -0.01   0.01  -0.02    -0.02   0.02  -0.03
  35   1     0.01  -0.04   0.03    -0.01   0.02  -0.01     0.01  -0.04   0.03
  36   1     0.18  -0.05   0.05    -0.02   0.01  -0.01    -0.04   0.01  -0.01
  37   1    -0.02   0.06  -0.04    -0.01   0.04  -0.02    -0.01   0.02  -0.01
  38   1    -0.16   0.05  -0.03     0.14  -0.04   0.03     0.20  -0.06   0.04
  39   1    -0.01   0.00  -0.00    -0.50   0.14  -0.15    -0.51   0.14  -0.16
  40   1     0.00  -0.00  -0.00    -0.17   0.22   0.13    -0.20   0.26   0.15
  41   1     0.02  -0.01   0.01     0.05  -0.02   0.02    -0.04   0.02  -0.02
  42   1     0.02  -0.03  -0.02     0.02  -0.03  -0.01    -0.01   0.02   0.01
  43   1     0.00  -0.02   0.01    -0.01   0.05  -0.02    -0.01   0.04  -0.02
  44   1     0.03  -0.03  -0.02    -0.02   0.02   0.01    -0.01   0.01   0.01
  45   1    -0.00   0.01  -0.00     0.02  -0.54   0.20    -0.02   0.47  -0.17
  46   1     0.00  -0.01  -0.00     0.18  -0.25  -0.14    -0.17   0.24   0.14
  47   1     0.01  -0.18   0.06     0.00  -0.03   0.01    -0.00   0.04  -0.01
  48   1     0.04  -0.02   0.03     0.01  -0.01   0.01     0.04  -0.02   0.03
  49   1    -0.01   0.17  -0.05    -0.01   0.16  -0.04     0.01  -0.20   0.05
  50   1    -0.05   0.03  -0.03     0.04  -0.02   0.02    -0.02   0.01  -0.01
                    139                    140                    141
                        a                      a                      a 
 Frequencies --  3073.1967              3074.0991              3085.1472
 Red. masses --     1.8534                 1.8522                 1.8383
 Frc consts  --     0.0000                 0.0000                 0.0000
 IR Inten    --    49.7160                 4.3331                51.6102
 Raman Activ --     0.0000                 0.0000                 0.0000
 Depolar     --     0.0000                 0.0000                 0.0000
 Atom AN      X      Y      Z        X      Y      Z        X      Y      Z
   1   6    -0.04   0.05   0.01    -0.05   0.06   0.01    -0.03   0.04   0.01
   2   6    -0.02   0.02  -0.03    -0.02   0.02  -0.02    -0.07   0.09  -0.11
   3   6     0.00  -0.00   0.00     0.00  -0.00  -0.00     0.00  -0.00  -0.00
   4   6    -0.04   0.05   0.01     0.05  -0.07  -0.01    -0.03   0.04   0.01
   5   6    -0.02   0.02  -0.03     0.02  -0.02   0.02    -0.08   0.09  -0.11
   6   6     0.00  -0.00   0.00    -0.00   0.00   0.00     0.00  -0.00  -0.00
   7   6     0.00  -0.01   0.01    -0.01   0.01  -0.01     0.02  -0.05   0.03
   8   6     0.02  -0.01   0.01    -0.01   0.00  -0.00     0.02  -0.01   0.00
   9   6    -0.00   0.00  -0.00    -0.00  -0.00   0.00     0.00   0.00  -0.00
  10   6     0.01  -0.04   0.03     0.01  -0.04   0.03    -0.00   0.01  -0.01
  11   6     0.15  -0.04   0.03     0.15  -0.04   0.03    -0.06   0.02  -0.01
  12   6     0.00   0.00  -0.00     0.00   0.00  -0.00    -0.00  -0.00   0.00
  13   6     0.05  -0.01   0.01     0.04  -0.01   0.01    -0.00   0.00  -0.00
  14   6     0.02  -0.02  -0.01     0.01  -0.02  -0.01     0.00  -0.00  -0.00
  15   6    -0.00  -0.00  -0.00    -0.00  -0.00  -0.00     0.00   0.00   0.00
  16   6     0.00  -0.00   0.00    -0.00   0.00  -0.00     0.00  -0.00   0.00
  17   6     0.00  -0.00  -0.00    -0.00   0.00   0.00     0.00  -0.00  -0.00
  18   6     0.00   0.00   0.00     0.00   0.00   0.00     0.00  -0.00  -0.00
  19   6     0.00  -0.00   0.00     0.00  -0.00   0.00     0.00  -0.00   0.00
  20   6     0.00  -0.00  -0.00     0.00  -0.00  -0.00     0.00  -0.00  -0.00
  21   6    -0.00  -0.00   0.00     0.00   0.00  -0.00    -0.00  -0.00  -0.00
  22   6     0.00  -0.05   0.02    -0.00   0.04  -0.01    -0.00   0.00  -0.00
  23   6     0.02  -0.02  -0.01    -0.01   0.02   0.01     0.00  -0.00  -0.00
  24   6     0.00   0.00  -0.00    -0.00  -0.00   0.00    -0.00  -0.00   0.00
  25   6     0.00  -0.02   0.01     0.00  -0.01   0.00     0.00  -0.02   0.01
  26   6     0.01  -0.01   0.01     0.01  -0.01   0.01     0.04  -0.02   0.03
  27   6    -0.00  -0.00  -0.00     0.00   0.00   0.00     0.00   0.00   0.00
  28   6     0.01  -0.15   0.04    -0.01   0.16  -0.04    -0.00   0.07  -0.02
  29   6     0.04  -0.02   0.02    -0.04   0.02  -0.03    -0.01   0.01  -0.01
  30   6     0.00   0.00  -0.00    -0.00  -0.00   0.00    -0.00  -0.00  -0.00
  31   1     0.15  -0.19  -0.04     0.17  -0.21  -0.05     0.11  -0.13  -0.03
  32   1     0.07  -0.08   0.11     0.05  -0.06   0.08     0.25  -0.31   0.40
  33   1     0.13  -0.18  -0.04    -0.16   0.23   0.05     0.10  -0.14  -0.03
  34   1     0.07  -0.07   0.10    -0.05   0.06  -0.08     0.28  -0.30   0.40
  35   1    -0.01   0.04  -0.03     0.01  -0.04   0.03    -0.05   0.16  -0.11
  36   1    -0.08   0.02  -0.02     0.02  -0.01   0.01    -0.05   0.01  -0.01
  37   1    -0.04   0.14  -0.09    -0.04   0.13  -0.09     0.01  -0.03   0.02
  38   1    -0.53   0.16  -0.11    -0.51   0.15  -0.10     0.23  -0.07   0.05
  39   1    -0.18   0.05  -0.05    -0.13   0.04  -0.04     0.00  -0.00   0.00
  40   1    -0.06   0.08   0.05    -0.04   0.05   0.03    -0.00   0.00   0.00
  41   1    -0.02   0.01  -0.01     0.01  -0.00   0.00    -0.01   0.00  -0.00
  42   1    -0.01   0.02   0.01     0.00  -0.01  -0.00    -0.00   0.01   0.00
  43   1    -0.00   0.02  -0.01    -0.00   0.01  -0.01    -0.00   0.01  -0.00
  44   1    -0.01   0.01   0.01    -0.00   0.01   0.00    -0.00   0.00   0.00
  45   1    -0.01   0.17  -0.06     0.01  -0.15   0.05     0.00  -0.00   0.00
  46   1    -0.06   0.08   0.04     0.04  -0.06  -0.03    -0.00   0.00   0.00
  47   1    -0.00   0.08  -0.03    -0.00   0.02  -0.01    -0.00   0.05  -0.02
  48   1    -0.04   0.02  -0.03    -0.04   0.02  -0.03    -0.15   0.08  -0.10
  49   1    -0.03   0.51  -0.14     0.03  -0.55   0.14     0.01  -0.24   0.06
  50   1    -0.13   0.07  -0.08     0.13  -0.07   0.08     0.03  -0.02   0.02
                    142                    143                    144
                        a                      a                      a 
 Frequencies --  3085.5452              3091.9076              3092.0663
 Red. masses --     1.8490                 1.8403                 1.8376
 Frc consts  --     0.0000                 0.0000                 0.0000
 IR Inten    --    16.8557                 9.7365                96.3280
 Raman Activ --     0.0000                 0.0000                 0.0000
 Depolar     --     0.0000                 0.0000                 0.0000
 Atom AN      X      Y      Z        X      Y      Z        X      Y      Z
   1   6    -0.04   0.05   0.01    -0.03   0.04   0.01     0.04  -0.04  -0.01
   2   6    -0.08   0.09  -0.12    -0.01   0.02  -0.02     0.02  -0.03   0.03
   3   6     0.00   0.00  -0.01     0.00  -0.00  -0.00    -0.00   0.00   0.00
   4   6     0.04  -0.05  -0.01     0.03  -0.05  -0.01     0.03  -0.04  -0.01
   5   6     0.08  -0.09   0.11     0.02  -0.02   0.03     0.02  -0.02   0.03
   6   6     0.00   0.00   0.01    -0.00   0.00   0.00     0.00  -0.00   0.00
   7   6    -0.01   0.04  -0.03     0.05  -0.15   0.10     0.04  -0.13   0.09
   8   6    -0.01   0.00  -0.00     0.05  -0.02   0.01     0.04  -0.01   0.01
   9   6     0.00  -0.00   0.00     0.00   0.00  -0.00     0.00   0.00  -0.00
  10   6    -0.00   0.01  -0.01    -0.00   0.00  -0.00     0.00  -0.00   0.00
  11   6    -0.06   0.02  -0.01    -0.01   0.00  -0.00     0.01  -0.00   0.00
  12   6    -0.00   0.00  -0.00    -0.00  -0.00   0.00    -0.00  -0.00   0.00
  13   6    -0.01   0.00  -0.00    -0.00   0.00  -0.00     0.00  -0.00   0.00
  14   6    -0.00   0.00   0.00    -0.00   0.00   0.00     0.00  -0.00  -0.00
  15   6     0.00   0.00   0.00    -0.00   0.00   0.00    -0.00  -0.00   0.00
  16   6     0.00  -0.00   0.00     0.00  -0.00   0.00     0.00  -0.00   0.00
  17   6    -0.00   0.00   0.00     0.00  -0.00  -0.00     0.00  -0.00  -0.00
  18   6    -0.00   0.00  -0.00     0.00  -0.00  -0.00     0.00  -0.00   0.00
  19   6    -0.00   0.00  -0.00    -0.00   0.00  -0.00     0.00  -0.00   0.00
  20   6     0.00  -0.00  -0.00    -0.00   0.00   0.00     0.00  -0.00  -0.00
  21   6    -0.00  -0.00   0.00    -0.00   0.00   0.00     0.00  -0.00   0.00
  22   6     0.00  -0.01   0.00     0.00  -0.00   0.00     0.00  -0.00   0.00
  23   6     0.00  -0.00  -0.00     0.00  -0.00  -0.00     0.00  -0.00  -0.00
  24   6     0.00   0.00  -0.00     0.00  -0.00  -0.00     0.00   0.00   0.00
  25   6     0.00  -0.02   0.01    -0.00   0.04  -0.01     0.00  -0.05   0.02
  26   6     0.04  -0.02   0.03    -0.12   0.07  -0.08     0.14  -0.08   0.10
  27   6     0.00  -0.00   0.00    -0.00  -0.00  -0.00     0.00   0.00   0.00
  28   6     0.00  -0.06   0.02     0.00  -0.01   0.00    -0.00  -0.01   0.00
  29   6     0.01  -0.01   0.01     0.00  -0.00   0.00     0.00  -0.00   0.00
  30   6    -0.00   0.00  -0.00     0.00  -0.00   0.00    -0.00   0.00  -0.00
  31   1     0.13  -0.16  -0.04     0.10  -0.13  -0.03    -0.13   0.16   0.04
  32   1     0.26  -0.32   0.41     0.04  -0.05   0.07    -0.07   0.09  -0.12
  33   1    -0.12   0.17   0.04    -0.11   0.16   0.04    -0.10   0.14   0.03
  34   1    -0.28   0.30  -0.41    -0.06   0.06  -0.09    -0.07   0.08  -0.10
  35   1     0.04  -0.13   0.09    -0.17   0.53  -0.37    -0.14   0.44  -0.31
  36   1     0.05  -0.01   0.01    -0.16   0.04  -0.04    -0.13   0.03  -0.03
  37   1     0.01  -0.04   0.03     0.00  -0.00   0.00    -0.00   0.01  -0.01
  38   1     0.21  -0.06   0.04     0.04  -0.01   0.01    -0.04   0.01  -0.01
  39   1     0.02  -0.01   0.01     0.00  -0.00   0.00    -0.01   0.00  -0.00
  40   1     0.01  -0.01  -0.01     0.00  -0.01  -0.00    -0.00   0.00   0.00
  41   1    -0.00   0.00  -0.00    -0.01   0.00  -0.00    -0.00   0.00  -0.00
  42   1     0.00  -0.00  -0.00    -0.01   0.02   0.01    -0.01   0.01   0.00
  43   1     0.00  -0.00   0.00     0.00  -0.01   0.00    -0.00   0.00  -0.00
  44   1    -0.00   0.00   0.00     0.01  -0.01  -0.01    -0.01   0.01   0.00
  45   1    -0.00   0.02  -0.01     0.00   0.00  -0.00    -0.00   0.01  -0.00
  46   1    -0.01   0.01   0.00    -0.00   0.01   0.00    -0.00   0.00   0.00
  47   1    -0.00   0.05  -0.02     0.01  -0.14   0.04    -0.01   0.15  -0.05
  48   1    -0.13   0.07  -0.09     0.42  -0.24   0.29    -0.50   0.28  -0.35
  49   1    -0.01   0.21  -0.05    -0.00   0.05  -0.01    -0.00   0.03  -0.01
  50   1    -0.04   0.02  -0.02    -0.01   0.00  -0.00    -0.01   0.00  -0.00
