 Entering Gaussian System
 *********************************************
 Gaussian 98:
 frequency output generated by the xtb code
 *********************************************
                         Standard orientation:
 --------------------------------------------------------------------
  Center     Atomic     Atomic              Coordinates (Angstroms)
  Number     Number      Type              X           Y           Z
 --------------------------------------------------------------------
    1          6             0        0.293885   -4.539478    3.697627
    2          6             0       -1.069136   -4.631432    3.405691
    3          6             0       -1.966417   -3.663782    3.891973
    4          6             0       -1.505671   -2.767712    4.874469
    5          6             0       -0.137271   -2.661590    5.147965
    6          6             0        0.792904   -3.462649    4.456192
    7          6             0       -3.898495   -4.371737    2.420548
    8          6             0       -4.698093   -4.052886    1.312727
    9          6             0       -4.807245   -2.719059    0.869658
   10          6             0       -4.278961   -1.705862    1.693255
   11          6             0       -3.493192   -2.022604    2.798762
   12          6             0       -3.204292   -3.361857    3.113478
   13          6             0       -5.529780   -1.086235   -0.912114
   14          6             0       -5.228643   -0.589492   -2.184435
   15          6             0       -4.593551   -1.409619   -3.136416
   16          6             0       -4.518012   -2.789561   -2.869732
   17          6             0       -4.768908   -3.274338   -1.582677
   18          6             0       -5.152477   -2.394421   -0.551598
   19          6             0       -3.961864    0.492472   -4.690116
   20          6             0       -2.920431    1.258223   -5.237288
   21          6             0       -1.604390    0.754489   -5.273233
   22          6             0       -1.409236   -0.601208   -4.948637
   23          6             0       -2.442599   -1.361314   -4.408827
   24          6             0       -3.708156   -0.793307   -4.173382
   25          6             0        0.858700    1.159181   -5.625575
   26          6             0        2.002064    1.718177   -5.045921
   27          6             0        1.893242    2.830415   -4.189663
   28          6             0        0.664832    3.517809   -4.158992
   29          6             0       -0.486284    2.928568   -4.690527
   30          6             0       -0.417212    1.666889   -5.312349
   31          6             0        2.424397    3.335272   -1.799483
   32          6             0        3.191742    3.050518   -0.674296
   33          6             0        4.454670    2.441539   -0.796544
   34          6             0        5.002924    2.312180   -2.088365
   35          6             0        4.228154    2.598534   -3.223668
   36          6             0        2.890179    3.020072   -3.089295
   37          6             0        5.597910    0.424977    0.182092
   38          6             0        5.582095   -0.524662    1.209537
   39          6             0        4.921731   -0.250540    2.424667
   40          6             0        4.583874    1.092195    2.692196
   41          6             0        4.657594    2.057384    1.684230
   42          6             0        5.011838    1.690512    0.372952
   43          6             0        3.772588   -1.131039    4.511503
   44          6             0        2.729431   -1.922936    5.012324
   45          6             0        2.197379   -2.976934    4.244753
   46          6             0        2.891386   -3.352389    3.080012
   47          6             0        3.908946   -2.550076    2.566751
   48          6             0        4.286542   -1.358002    3.217682
   49          1             0        0.973106   -5.210883    3.187137
   50          1             0       -1.380393   -5.356347    2.664930
   51          1             0       -2.180037   -2.045820    5.317892
   52          1             0        0.195373   -1.848916    5.780959
   53          1             0       -3.735539   -5.414144    2.663325
   54          1             0       -5.136279   -4.861176    0.742180
   55          1             0       -4.328434   -0.664399    1.407044
   56          1             0       -2.984123   -1.209377    3.299412
   57          1             0       -5.911377   -0.397279   -0.169724
   58          1             0       -5.348071    0.472294   -2.352999
   59          1             0       -4.109708   -3.471090   -3.605113
   60          1             0       -4.503243   -4.301394   -1.373271
   61          1             0       -4.936976    0.948100   -4.576343
   62          1             0       -3.127578    2.279196   -5.530033
   63          1             0       -0.423474   -1.045522   -4.953561
   64          1             0       -2.188269   -2.342884   -4.032500
   65          1             0        0.964116    0.235543   -6.179990
   66          1             0        2.932639    1.175346   -5.141810
   67          1             0        0.556375    4.427057   -3.581604
   68          1             0       -1.437694    3.388940   -4.461713
   69          1             0        1.405277    3.656035   -1.631948
   70          1             0        2.715032    3.170477    0.288858
   71          1             0        5.992083    1.896030   -2.227609
   72          1             0        4.644232    2.391777   -4.201076
   73          1             0        5.931117    0.104910   -0.795776
   74          1             0        5.957825   -1.515074    0.991519
   75          1             0        4.117069    1.383349    3.621978
   76          1             0        4.285502    3.051229    1.897720
   77          1             0        4.087922   -0.275224    5.092451
   78          1             0        2.257651   -1.631572    5.942383
   79          1             0        2.547840   -4.178962    2.471196
   80          1             0        4.276533   -2.800431    1.582418
 --------------------------------------------------------------------
     1 basis functions        1 primitive gaussians
     1 alpha electrons        1 beta electrons
 
 Harmonic frequencies (cm**-1), IR intensities (km*mol⁻¹),
 Raman scattering activities (A**4/amu), Raman depolarization ratios,
 reduced masses (AMU), force constants (mDyne/A) and normal coordinates:
                      1                      2                      3
                        a                      a                      a 
 Frequencies --    38.1963                40.8440                69.2998
 Red. masses --    11.3592                11.3817                11.0952
 Frc consts  --     0.0000                 0.0000                 0.0000
 IR Inten    --     0.0148                 0.0518                 0.0192
 Raman Activ --     0.0000                 0.0000                 0.0000
 Depolar     --     0.0000                 0.0000                 0.0000
 Atom AN      X      Y      Z        X      Y      Z        X      Y      Z
   1   6    -0.03  -0.10   0.14    -0.08   0.00  -0.08    -0.06   0.01  -0.08
   2   6    -0.03  -0.10   0.14    -0.09  -0.04  -0.03    -0.07   0.07  -0.04
   3   6    -0.03  -0.09   0.14    -0.09  -0.06   0.01    -0.01   0.11   0.00
   4   6    -0.02  -0.10   0.14    -0.08  -0.05  -0.01     0.06   0.08  -0.01
   5   6    -0.02  -0.10   0.14    -0.07  -0.01  -0.06     0.07   0.02  -0.05
   6   6    -0.03  -0.09   0.12    -0.08   0.01  -0.10     0.01  -0.03  -0.08
   7   6     0.00  -0.03   0.07    -0.12  -0.09   0.05    -0.08   0.15   0.10
   8   6     0.05  -0.01   0.05    -0.12  -0.09   0.06    -0.08   0.14   0.10
   9   6     0.09   0.00   0.06    -0.13  -0.09   0.06    -0.02   0.13   0.05
  10   6     0.08  -0.02   0.09    -0.15  -0.08   0.07    -0.00   0.14   0.03
  11   6     0.04  -0.05   0.12    -0.14  -0.08   0.07    -0.00   0.15   0.04
  12   6    -0.00  -0.06   0.11    -0.12  -0.08   0.05    -0.03   0.14   0.05
  13   6     0.15   0.03   0.06    -0.06  -0.07   0.05     0.06   0.07  -0.04
  14   6     0.16   0.04   0.06    -0.01  -0.06   0.07     0.09  -0.01  -0.06
  15   6     0.15   0.04   0.06     0.04  -0.04   0.09     0.08  -0.07  -0.01
  16   6     0.16   0.04   0.05     0.02  -0.05   0.08     0.07  -0.06   0.07
  17   6     0.16   0.04   0.05    -0.04  -0.06   0.06     0.04   0.02   0.09
  18   6     0.14   0.03   0.05    -0.09  -0.08   0.05     0.03   0.08   0.03
  19   6     0.07   0.03   0.01     0.08  -0.03   0.13     0.06  -0.16  -0.10
  20   6     0.04   0.04  -0.04     0.08  -0.04   0.13     0.06  -0.15  -0.10
  21   6     0.05   0.06  -0.08     0.08  -0.03   0.14     0.07  -0.13  -0.04
  22   6     0.08   0.07  -0.06     0.09  -0.03   0.16     0.09  -0.12  -0.01
  23   6     0.11   0.06  -0.01     0.08  -0.03   0.16     0.09  -0.12  -0.02
  24   6     0.11   0.05   0.03     0.07  -0.03   0.13     0.08  -0.13  -0.05
  25   6     0.03   0.09  -0.13     0.08  -0.02   0.07     0.07  -0.03   0.07
  26   6     0.03   0.10  -0.14     0.09   0.01   0.02     0.02   0.04   0.10
  27   6     0.02   0.09  -0.13     0.10   0.05  -0.02    -0.06   0.04   0.08
  28   6     0.02   0.09  -0.14     0.09   0.03  -0.00    -0.09  -0.03   0.05
  29   6     0.03   0.09  -0.14     0.08  -0.01   0.05    -0.05  -0.09   0.02
  30   6     0.03   0.08  -0.12     0.08  -0.03   0.09     0.04  -0.08   0.02
  31   6    -0.04   0.05  -0.11     0.13   0.11  -0.05    -0.09   0.08   0.09
  32   6    -0.08   0.02  -0.09     0.14   0.12  -0.05    -0.09   0.07   0.09
  33   6    -0.09  -0.01  -0.07     0.13   0.10  -0.05    -0.08   0.10   0.08
  34   6    -0.05   0.01  -0.05     0.12   0.09  -0.05    -0.06   0.16   0.08
  35   6    -0.01   0.04  -0.07     0.12   0.09  -0.05    -0.06   0.17   0.08
  36   6    -0.00   0.07  -0.10     0.12   0.09  -0.05    -0.08   0.11   0.09
  37   6    -0.15  -0.04  -0.06     0.05   0.05  -0.07    -0.07   0.05  -0.05
  38   6    -0.16  -0.04  -0.05    -0.01   0.03  -0.09    -0.04  -0.01  -0.10
  39   6    -0.15  -0.03  -0.05    -0.03   0.03  -0.10    -0.01  -0.08  -0.07
  40   6    -0.16  -0.03  -0.06     0.01   0.04  -0.08    -0.03  -0.10   0.00
  41   6    -0.15  -0.04  -0.06     0.07   0.06  -0.06    -0.07  -0.04   0.05
  42   6    -0.13  -0.03  -0.06     0.09   0.07  -0.06    -0.07   0.03   0.03
  43   6    -0.08  -0.03  -0.01    -0.08   0.04  -0.13     0.09  -0.16  -0.07
  44   6    -0.05  -0.04   0.04    -0.09   0.04  -0.13     0.09  -0.16  -0.06
  45   6    -0.05  -0.07   0.07    -0.09   0.04  -0.13     0.03  -0.10  -0.09
  46   6    -0.08  -0.06   0.05    -0.11   0.06  -0.15    -0.01  -0.09  -0.12
  47   6    -0.11  -0.05   0.00    -0.10   0.06  -0.14    -0.01  -0.09  -0.13
  48   6    -0.12  -0.03  -0.02    -0.08   0.04  -0.13     0.03  -0.12  -0.10
  49   1    -0.01  -0.03   0.04    -0.02   0.01  -0.03    -0.03  -0.00  -0.03
  50   1    -0.01  -0.03   0.04    -0.03  -0.01  -0.00    -0.04   0.03  -0.01
  51   1    -0.01  -0.03   0.04    -0.02  -0.02   0.01     0.03   0.03   0.00
  52   1    -0.01  -0.03   0.04    -0.02  -0.00  -0.02     0.04  -0.00  -0.02
  53   1    -0.01  -0.01   0.02    -0.03  -0.02   0.01    -0.03   0.04   0.04
  54   1     0.02   0.00   0.01    -0.03  -0.03   0.01    -0.03   0.04   0.03
  55   1     0.03  -0.00   0.03    -0.05  -0.02   0.02     0.01   0.04   0.00
  56   1     0.01  -0.02   0.04    -0.04  -0.02   0.02     0.01   0.04   0.00
  57   1     0.04   0.01   0.02    -0.03  -0.02   0.01     0.02   0.03  -0.02
  58   1     0.05   0.01   0.02     0.00  -0.02   0.02     0.03  -0.00  -0.04
  59   1     0.05   0.01   0.02     0.01  -0.01   0.02     0.02  -0.03   0.03
  60   1     0.05   0.01   0.01    -0.02  -0.02   0.02     0.01   0.01   0.04
  61   1     0.02   0.01   0.01     0.02  -0.01   0.03     0.01  -0.05  -0.04
  62   1     0.00   0.01  -0.01     0.02  -0.01   0.04     0.01  -0.05  -0.04
  63   1     0.03   0.02  -0.02     0.03  -0.01   0.05     0.03  -0.03   0.00
  64   1     0.04   0.02   0.00     0.02  -0.01   0.05     0.03  -0.03   0.00
  65   1     0.01   0.03  -0.04     0.02  -0.01   0.03     0.04  -0.01   0.02
  66   1     0.01   0.03  -0.04     0.03   0.01   0.00     0.01   0.02   0.04
  67   1     0.01   0.03  -0.04     0.03   0.01  -0.01    -0.05  -0.01   0.02
  68   1     0.01   0.02  -0.04     0.02  -0.00   0.02    -0.02  -0.04  -0.00
  69   1    -0.01   0.02  -0.04     0.04   0.04  -0.01    -0.03   0.01   0.03
  70   1    -0.03   0.00  -0.03     0.04   0.04  -0.01    -0.03   0.01   0.03
  71   1    -0.02  -0.00  -0.01     0.03   0.02  -0.02    -0.01   0.06   0.02
  72   1     0.00   0.01  -0.02     0.03   0.02  -0.02    -0.01   0.06   0.02
  73   1    -0.04  -0.01  -0.02     0.02   0.02  -0.02    -0.03   0.03  -0.02
  74   1    -0.05  -0.01  -0.02    -0.01   0.01  -0.03    -0.01   0.00  -0.05
  75   1    -0.05  -0.01  -0.02    -0.00   0.01  -0.03    -0.01  -0.04   0.01
  76   1    -0.04  -0.01  -0.02     0.03   0.02  -0.01    -0.02  -0.02   0.03
  77   1    -0.02  -0.00  -0.01    -0.02   0.01  -0.03     0.04  -0.06  -0.01
  78   1    -0.01  -0.01   0.01    -0.02   0.01  -0.04     0.04  -0.05  -0.01
  79   1    -0.02  -0.02   0.02    -0.03   0.02  -0.05    -0.01  -0.02  -0.04
  80   1    -0.04  -0.01  -0.00    -0.03   0.02  -0.04    -0.01  -0.02  -0.04
                      4                      5                      6
                        a                      a                      a 
 Frequencies --    73.8379                84.1581                85.6143
 Red. masses --    11.0576                11.1293                11.1416
 Frc consts  --     0.0000                 0.0000                 0.0000
 IR Inten    --     0.0047                 0.0161                 0.0320
 Raman Activ --     0.0000                 0.0000                 0.0000
 Depolar     --     0.0000                 0.0000                 0.0000
 Atom AN      X      Y      Z        X      Y      Z        X      Y      Z
   1   6     0.07  -0.08  -0.15    -0.03  -0.09   0.13     0.04  -0.08   0.16
   2   6     0.07  -0.08  -0.15    -0.04  -0.11   0.15     0.06  -0.03   0.07
   3   6     0.06  -0.12  -0.08    -0.03  -0.09   0.12     0.07   0.04  -0.03
   4   6     0.05  -0.19  -0.02    -0.04  -0.09   0.13     0.05   0.05  -0.03
   5   6     0.05  -0.19  -0.01    -0.04  -0.07   0.11     0.04   0.00   0.05
   6   6     0.06  -0.13  -0.08    -0.04  -0.04   0.08     0.04  -0.07   0.13
   7   6    -0.01  -0.01  -0.06     0.02  -0.01   0.01     0.10   0.05  -0.07
   8   6    -0.04   0.06  -0.01     0.09   0.04  -0.03     0.07   0.03  -0.05
   9   6    -0.03   0.08   0.06     0.16   0.04  -0.02     0.05   0.02  -0.07
  10   6     0.03   0.03   0.08     0.18   0.01  -0.01     0.13   0.03  -0.15
  11   6     0.06  -0.04   0.04     0.12  -0.03   0.03     0.16   0.06  -0.16
  12   6     0.05  -0.06  -0.04     0.02  -0.04   0.05     0.12   0.06  -0.10
  13   6     0.02   0.16   0.10     0.14   0.07  -0.00    -0.11  -0.02  -0.04
  14   6     0.02   0.16   0.09     0.05   0.04  -0.03    -0.14  -0.02  -0.05
  15   6    -0.05   0.13   0.07    -0.05   0.02  -0.08    -0.14  -0.02  -0.05
  16   6    -0.13   0.12   0.06    -0.05   0.02  -0.06    -0.17  -0.03  -0.07
  17   6    -0.13   0.13   0.06     0.04   0.04  -0.04    -0.14  -0.03  -0.07
  18   6    -0.05   0.14   0.08     0.14   0.06  -0.02    -0.07  -0.01  -0.05
  19   6     0.02   0.05   0.00    -0.07   0.01  -0.10    -0.01  -0.00   0.02
  20   6     0.05  -0.02  -0.05    -0.05   0.00  -0.07     0.03  -0.02   0.09
  21   6     0.03  -0.09  -0.05    -0.06  -0.03  -0.06     0.03  -0.05   0.15
  22   6    -0.03  -0.08   0.00    -0.11  -0.06  -0.16    -0.01  -0.05   0.17
  23   6    -0.06  -0.01   0.05    -0.13  -0.05  -0.19    -0.06  -0.03   0.10
  24   6    -0.03   0.06   0.05    -0.10  -0.01  -0.14    -0.07  -0.02   0.01
  25   6     0.06  -0.18  -0.01    -0.03  -0.06   0.09     0.04  -0.08   0.15
  26   6     0.06  -0.18   0.00    -0.04  -0.08   0.12     0.05  -0.02   0.07
  27   6     0.05  -0.13  -0.06    -0.04  -0.08   0.12     0.07   0.06  -0.03
  28   6     0.07  -0.10  -0.13    -0.05  -0.10   0.15     0.06   0.04  -0.04
  29   6     0.07  -0.10  -0.14    -0.04  -0.08   0.12     0.05  -0.02   0.04
  30   6     0.06  -0.13  -0.07    -0.04  -0.05   0.05     0.04  -0.06   0.13
  31   6    -0.03  -0.02  -0.06     0.08   0.03   0.08     0.10   0.21  -0.08
  32   6    -0.06   0.05  -0.03     0.14   0.09   0.05     0.06   0.18  -0.06
  33   6    -0.04   0.09   0.04     0.13   0.09   0.01     0.02   0.08  -0.04
  34   6     0.00   0.04   0.06     0.08   0.05  -0.01     0.05   0.07  -0.03
  35   6     0.03  -0.04   0.02     0.01   0.00   0.02     0.08   0.09  -0.04
  36   6     0.01  -0.07  -0.03     0.01  -0.03   0.07     0.09   0.13  -0.06
  37   6     0.01   0.16   0.10     0.07   0.04  -0.02    -0.14  -0.02  -0.07
  38   6     0.00   0.15   0.09    -0.02   0.02  -0.05    -0.17  -0.04  -0.08
  39   6    -0.06   0.12   0.06    -0.04   0.03  -0.06    -0.14  -0.04  -0.06
  40   6    -0.14   0.10   0.06     0.06   0.05  -0.03    -0.14  -0.04  -0.06
  41   6    -0.14   0.11   0.06     0.15   0.07   0.00    -0.11  -0.02  -0.04
  42   6    -0.06   0.13   0.08     0.14   0.08  -0.00    -0.08   0.00  -0.04
  43   6    -0.05   0.00   0.02    -0.08   0.03  -0.08    -0.00  -0.03   0.01
  44   6    -0.02  -0.06  -0.01    -0.06   0.02  -0.05     0.04  -0.05   0.08
  45   6     0.04  -0.07  -0.05    -0.08   0.02  -0.03     0.05  -0.09   0.13
  46   6     0.07   0.00  -0.05    -0.18   0.08  -0.10     0.02  -0.11   0.12
  47   6     0.03   0.07  -0.02    -0.20   0.09  -0.14    -0.03  -0.09   0.05
  48   6    -0.03   0.07   0.02    -0.12   0.05  -0.10    -0.06  -0.04  -0.01
  49   1     0.02  -0.01  -0.06    -0.01  -0.03   0.04     0.01  -0.04   0.07
  50   1     0.02  -0.01  -0.06    -0.01  -0.04   0.05     0.02  -0.01   0.02
  51   1     0.01  -0.07   0.01    -0.01  -0.03   0.04     0.02   0.03  -0.03
  52   1     0.01  -0.07   0.01    -0.01  -0.02   0.03     0.01   0.00   0.01
  53   1    -0.00  -0.01  -0.03    -0.01  -0.00   0.00     0.03   0.02  -0.01
  54   1    -0.03   0.03  -0.01     0.02   0.02  -0.01     0.01   0.01  -0.00
  55   1     0.01   0.01   0.04     0.07   0.01  -0.00     0.04   0.01  -0.05
  56   1     0.03  -0.02   0.02     0.04  -0.01   0.02     0.06   0.02  -0.06
  57   1     0.02   0.05   0.03     0.06   0.02   0.01    -0.02  -0.01  -0.01
  58   1     0.02   0.05   0.03     0.02   0.01  -0.01    -0.04  -0.01  -0.01
  59   1    -0.05   0.03   0.01    -0.04  -0.00  -0.02    -0.06  -0.01  -0.03
  60   1    -0.05   0.03   0.01     0.01   0.01  -0.01    -0.04  -0.01  -0.02
  61   1     0.01   0.03   0.00    -0.02   0.01  -0.02    -0.00   0.00  -0.01
  62   1     0.03  -0.01  -0.03    -0.01   0.01  -0.01     0.02  -0.00   0.02
  63   1    -0.02  -0.04  -0.00    -0.04  -0.03  -0.05    -0.01  -0.02   0.07
  64   1    -0.03  -0.00   0.03    -0.05  -0.02  -0.07    -0.03  -0.01   0.03
  65   1     0.02  -0.06   0.01    -0.01  -0.01   0.02     0.01  -0.04   0.06
  66   1     0.01  -0.06   0.02    -0.01  -0.02   0.04     0.01  -0.01   0.02
  67   1     0.02  -0.02  -0.05    -0.02  -0.03   0.05     0.02   0.02  -0.03
  68   1     0.02  -0.02  -0.05    -0.01  -0.03   0.03     0.02  -0.00   0.01
  69   1    -0.01  -0.01  -0.03     0.02   0.01   0.04     0.03   0.08  -0.03
  70   1    -0.03   0.03  -0.01     0.05   0.04   0.02     0.02   0.06  -0.02
  71   1     0.01   0.02   0.03     0.02   0.02  -0.01     0.01   0.01  -0.00
  72   1     0.02  -0.02   0.01    -0.01  -0.01   0.00     0.03   0.02  -0.01
  73   1     0.02   0.05   0.03     0.02   0.01  -0.01    -0.04  -0.01  -0.02
  74   1     0.02   0.05   0.03    -0.02  -0.00  -0.02    -0.06  -0.01  -0.03
  75   1    -0.05   0.02   0.01     0.02   0.02  -0.01    -0.04  -0.01  -0.02
  76   1    -0.05   0.03   0.01     0.06   0.03   0.01    -0.03  -0.01  -0.01
  77   1    -0.03   0.00   0.01    -0.01   0.00  -0.02    -0.00  -0.00  -0.01
  78   1    -0.01  -0.03  -0.00    -0.00   0.00  -0.01     0.02  -0.01   0.03
  79   1     0.03   0.00  -0.02    -0.07   0.03  -0.03     0.01  -0.04   0.05
  80   1     0.01   0.04  -0.01    -0.08   0.04  -0.05    -0.02  -0.03   0.01
                      7                      8                      9
                        a                      a                      a 
 Frequencies --   106.6910               116.6493               118.5372
 Red. masses --    10.1140                10.3336                10.4040
 Frc consts  --     0.0000                 0.0000                 0.0000
 IR Inten    --     0.0062                 0.0268                 0.0193
 Raman Activ --     0.0000                 0.0000                 0.0000
 Depolar     --     0.0000                 0.0000                 0.0000
 Atom AN      X      Y      Z        X      Y      Z        X      Y      Z
   1   6     0.02   0.06  -0.18     0.03   0.00   0.15    -0.01   0.06  -0.02
   2   6     0.03   0.04  -0.19     0.04  -0.05   0.13    -0.02   0.07   0.00
   3   6    -0.01  -0.06  -0.05    -0.00  -0.03   0.01    -0.02   0.06   0.02
   4   6    -0.04  -0.19   0.08    -0.03   0.06  -0.04     0.02   0.08  -0.01
   5   6    -0.05  -0.19   0.10    -0.04   0.13  -0.04     0.03   0.07  -0.04
   6   6    -0.00  -0.04  -0.01    -0.01   0.09   0.05     0.02   0.03  -0.01
   7   6    -0.06   0.01  -0.02     0.12  -0.11  -0.14     0.04  -0.04   0.01
   8   6    -0.07   0.05   0.00     0.11  -0.09  -0.13     0.06  -0.08  -0.01
   9   6    -0.03   0.07   0.03    -0.02  -0.06  -0.03    -0.04  -0.07   0.03
  10   6    -0.01   0.04   0.05    -0.13  -0.09   0.08    -0.23  -0.06   0.14
  11   6    -0.01  -0.01   0.04    -0.13  -0.11   0.07    -0.24  -0.03   0.16
  12   6    -0.03  -0.02  -0.01     0.01  -0.10  -0.03    -0.07  -0.01   0.08
  13   6     0.06   0.08  -0.01     0.06   0.09   0.07     0.01  -0.05   0.01
  14   6     0.07   0.04  -0.03     0.08   0.13   0.09     0.01  -0.03   0.02
  15   6     0.02  -0.02  -0.02    -0.02   0.12   0.03     0.01   0.01  -0.01
  16   6    -0.01  -0.01   0.03    -0.14   0.10  -0.04     0.06   0.01  -0.00
  17   6    -0.02   0.04   0.04    -0.15   0.05  -0.06     0.08  -0.01  -0.00
  18   6     0.01   0.07   0.02    -0.04   0.03  -0.00     0.03  -0.05   0.01
  19   6    -0.01  -0.08  -0.10     0.05   0.04  -0.05    -0.02   0.12   0.10
  20   6    -0.01  -0.07  -0.08     0.08  -0.03  -0.10    -0.01   0.11   0.10
  21   6     0.00  -0.04  -0.01     0.06  -0.06  -0.05    -0.04   0.02  -0.08
  22   6     0.02  -0.04  -0.01     0.03  -0.05   0.04    -0.14  -0.05  -0.33
  23   6     0.02  -0.05  -0.02     0.00   0.02   0.07    -0.15  -0.04  -0.33
  24   6     0.01  -0.06  -0.05     0.01   0.07   0.03    -0.07   0.03  -0.07
  25   6    -0.01   0.05   0.02     0.09  -0.09   0.06     0.01  -0.09   0.07
  26   6    -0.02   0.08   0.02     0.05  -0.04   0.09     0.02  -0.10   0.08
  27   6    -0.05   0.06   0.04    -0.02  -0.00   0.03     0.04  -0.04   0.01
  28   6    -0.09  -0.00   0.10    -0.02  -0.02  -0.06     0.05  -0.02  -0.05
  29   6    -0.07  -0.04   0.10     0.02  -0.05  -0.10     0.05  -0.01  -0.05
  30   6    -0.02  -0.01   0.04     0.07  -0.08  -0.05     0.01  -0.03  -0.02
  31   6     0.06   0.11   0.02    -0.15  -0.12   0.08     0.10   0.20  -0.04
  32   6     0.09   0.07  -0.01    -0.13  -0.14   0.07     0.09   0.22  -0.02
  33   6     0.05  -0.00  -0.06    -0.06   0.02   0.02     0.03   0.10   0.02
  34   6     0.01  -0.00  -0.08    -0.01   0.20   0.03     0.03   0.02   0.03
  35   6    -0.02   0.04  -0.05    -0.02   0.22   0.04     0.05  -0.01   0.01
  36   6    -0.01   0.08   0.00    -0.07   0.05   0.06     0.06   0.04  -0.02
  37   6    -0.07  -0.09  -0.08    -0.11  -0.06  -0.13    -0.06   0.03  -0.01
  38   6    -0.08  -0.07  -0.06    -0.07  -0.08  -0.15    -0.05   0.00  -0.04
  39   6    -0.00  -0.01  -0.02     0.06  -0.06  -0.07    -0.02  -0.04  -0.01
  40   6     0.10   0.02  -0.05     0.17  -0.04  -0.02    -0.06  -0.05   0.00
  41   6     0.12  -0.00  -0.07     0.13  -0.03  -0.01    -0.08  -0.02   0.03
  42   6     0.04  -0.04  -0.08    -0.01  -0.03  -0.04    -0.04   0.04   0.02
  43   6    -0.17   0.18  -0.04     0.04   0.05  -0.05     0.07  -0.05   0.02
  44   6    -0.17   0.18  -0.04     0.01   0.11  -0.02     0.06  -0.04   0.03
  45   6    -0.00   0.01   0.07    -0.01   0.08   0.03     0.05  -0.04   0.03
  46   6     0.21  -0.13   0.25    -0.00   0.01   0.06     0.10  -0.10   0.08
  47   6     0.20  -0.12   0.24     0.02  -0.05   0.03     0.11  -0.11   0.07
  48   6     0.00   0.04   0.06     0.05  -0.02  -0.03     0.06  -0.06   0.02
  49   1     0.01   0.04  -0.08     0.02  -0.01   0.07    -0.01   0.01  -0.01
  50   1     0.01   0.04  -0.08     0.02  -0.04   0.05    -0.01   0.02   0.00
  51   1    -0.02  -0.08   0.05    -0.02   0.02  -0.03     0.01   0.03  -0.00
  52   1    -0.03  -0.08   0.07    -0.02   0.06  -0.03     0.01   0.02  -0.02
  53   1    -0.02   0.00  -0.01     0.06  -0.03  -0.07     0.04  -0.01  -0.01
  54   1    -0.03   0.02  -0.00     0.06  -0.03  -0.06     0.05  -0.03  -0.02
  55   1     0.00   0.01   0.02    -0.07  -0.02   0.05    -0.10  -0.01   0.06
  56   1     0.00  -0.01   0.02    -0.07  -0.03   0.04    -0.11   0.00   0.07
  57   1     0.03   0.03  -0.01     0.04   0.02   0.03    -0.00  -0.02   0.00
  58   1     0.03   0.01  -0.02     0.05   0.04   0.04    -0.01  -0.01   0.01
  59   1    -0.01  -0.01   0.01    -0.06   0.03  -0.03     0.02   0.00  -0.00
  60   1    -0.01   0.01   0.02    -0.07   0.01  -0.04     0.03  -0.00  -0.01
  61   1    -0.01  -0.03  -0.04     0.02   0.02  -0.02     0.01   0.05   0.07
  62   1    -0.01  -0.02  -0.03     0.03  -0.01  -0.05     0.01   0.04   0.07
  63   1     0.01  -0.01   0.01     0.00  -0.02   0.02    -0.06  -0.04  -0.15
  64   1     0.01  -0.01  -0.00    -0.01   0.01   0.04    -0.05  -0.03  -0.15
  65   1     0.01   0.02   0.00     0.04  -0.03   0.03     0.01  -0.03   0.03
  66   1    -0.00   0.03  -0.00     0.02  -0.01   0.05    -0.00  -0.04   0.04
  67   1    -0.03  -0.01   0.04    -0.02  -0.00  -0.02     0.02   0.00  -0.03
  68   1    -0.03  -0.03   0.04     0.00  -0.02  -0.05     0.02   0.01  -0.03
  69   1     0.02   0.04   0.02    -0.06  -0.08   0.02     0.04   0.08  -0.02
  70   1     0.04   0.03   0.00    -0.05  -0.08   0.02     0.03   0.10  -0.01
  71   1    -0.00  -0.01  -0.03     0.01   0.09   0.01     0.00  -0.01   0.01
  72   1    -0.02   0.01  -0.02     0.00   0.10   0.01     0.01  -0.03   0.01
  73   1    -0.04  -0.04  -0.03    -0.07  -0.02  -0.05    -0.02   0.02  -0.00
  74   1    -0.04  -0.03  -0.02    -0.05  -0.03  -0.06    -0.01   0.00  -0.02
  75   1     0.05   0.03  -0.01     0.08  -0.01   0.01    -0.02  -0.02   0.00
  76   1     0.06   0.01  -0.02     0.06  -0.00   0.01    -0.03  -0.01   0.02
  77   1    -0.09   0.08  -0.03     0.02   0.02  -0.02     0.02  -0.01   0.00
  78   1    -0.09   0.09  -0.04    -0.00   0.05  -0.01     0.02  -0.01   0.01
  79   1     0.12  -0.09   0.10    -0.01  -0.00   0.03     0.04  -0.04   0.03
  80   1     0.10  -0.08   0.10     0.01  -0.03   0.01     0.04  -0.04   0.03
                     10                     11                     12
                        a                      a                      a 
 Frequencies --   128.2963               140.4416               142.7774
 Red. masses --     9.9687                10.0710                10.0168
 Frc consts  --     0.0000                 0.0000                 0.0000
 IR Inten    --     0.0034                 0.0478                 0.1019
 Raman Activ --     0.0000                 0.0000                 0.0000
 Depolar     --     0.0000                 0.0000                 0.0000
 Atom AN      X      Y      Z        X      Y      Z        X      Y      Z
   1   6    -0.03   0.04  -0.09     0.01  -0.04   0.07     0.02  -0.03   0.05
   2   6    -0.03   0.05  -0.06     0.01  -0.11   0.07     0.03  -0.02   0.01
   3   6    -0.02   0.01   0.03    -0.00  -0.07  -0.04     0.03   0.00  -0.05
   4   6    -0.02  -0.06   0.08    -0.03   0.05  -0.15     0.01   0.03  -0.07
   5   6    -0.01  -0.08   0.07    -0.04   0.12  -0.15    -0.00   0.04  -0.03
   6   6    -0.02  -0.01  -0.02    -0.02   0.05  -0.04     0.01  -0.00   0.03
   7   6    -0.10   0.05   0.13    -0.20  -0.05   0.10    -0.02   0.00  -0.02
   8   6    -0.08   0.03   0.10    -0.24  -0.03   0.12    -0.07   0.01   0.02
   9   6     0.05   0.00  -0.00    -0.07  -0.06   0.01    -0.07   0.01   0.02
  10   6     0.18   0.03  -0.12     0.19  -0.05  -0.16    -0.01   0.01  -0.01
  11   6     0.15   0.06  -0.10     0.23  -0.07  -0.20     0.03  -0.00  -0.05
  12   6    -0.01   0.05   0.03     0.00  -0.08  -0.06     0.02  -0.01  -0.05
  13   6    -0.10  -0.11  -0.03     0.04   0.01   0.07     0.11   0.09   0.04
  14   6    -0.13  -0.09  -0.03     0.13   0.04   0.11     0.17   0.05   0.04
  15   6    -0.02  -0.03  -0.00     0.09   0.03   0.09     0.04  -0.03   0.02
  16   6     0.10  -0.03   0.01    -0.02   0.01   0.04    -0.16  -0.04   0.01
  17   6     0.12  -0.04   0.01    -0.11  -0.03   0.01    -0.23  -0.02   0.01
  18   6     0.03  -0.06  -0.01    -0.08  -0.04   0.02    -0.08   0.03   0.02
  19   6     0.02   0.11   0.19     0.06   0.03   0.11     0.07  -0.00   0.17
  20   6     0.02   0.11   0.20     0.03   0.02   0.03     0.07   0.01   0.19
  21   6    -0.00   0.04   0.04     0.02  -0.01  -0.09     0.04  -0.06   0.04
  22   6    -0.07  -0.00  -0.12     0.00  -0.03  -0.15    -0.02  -0.13  -0.22
  23   6    -0.08  -0.00  -0.13     0.03  -0.01  -0.07    -0.03  -0.15  -0.24
  24   6    -0.03   0.03   0.02     0.07   0.02   0.07     0.04  -0.08  -0.01
  25   6     0.03  -0.10   0.08     0.03  -0.01  -0.02     0.03   0.14  -0.11
  26   6     0.04  -0.11   0.07    -0.01  -0.01   0.04     0.05   0.20  -0.18
  27   6     0.06  -0.04  -0.02    -0.05   0.00   0.03     0.03   0.09  -0.04
  28   6     0.10   0.03  -0.12    -0.04   0.01  -0.05    -0.04  -0.03   0.16
  29   6     0.09   0.05  -0.11    -0.01   0.01  -0.11    -0.03  -0.10   0.24
  30   6     0.04  -0.01   0.00     0.01  -0.01  -0.09     0.02  -0.02   0.09
  31   6    -0.14  -0.24   0.03     0.03   0.20   0.03    -0.02  -0.13  -0.03
  32   6    -0.15  -0.22   0.04     0.03   0.20   0.04    -0.04  -0.18  -0.04
  33   6    -0.03   0.03   0.02    -0.05   0.02   0.04     0.01  -0.06  -0.05
  34   6     0.06   0.22   0.05    -0.11  -0.12   0.03     0.06   0.09  -0.05
  35   6     0.07   0.20   0.03    -0.10  -0.12   0.04     0.08   0.14  -0.05
  36   6     0.00  -0.02   0.02    -0.06   0.02   0.04     0.05   0.05  -0.05
  37   6    -0.04   0.01  -0.05    -0.13  -0.04  -0.03     0.07  -0.01   0.04
  38   6    -0.05  -0.01  -0.07    -0.07  -0.04  -0.04     0.05   0.02   0.07
  39   6    -0.00  -0.01  -0.04     0.07  -0.01   0.03    -0.04   0.03   0.02
  40   6     0.06   0.00  -0.01     0.17   0.01   0.07    -0.13   0.01  -0.04
  41   6     0.06   0.02   0.01     0.11   0.01   0.06    -0.10  -0.02  -0.06
  42   6     0.01   0.02  -0.00    -0.04  -0.00   0.02     0.00  -0.04  -0.03
  43   6    -0.08   0.07  -0.07     0.02   0.02   0.02     0.00   0.01   0.05
  44   6    -0.08   0.08  -0.07    -0.01   0.04  -0.01     0.02  -0.01   0.06
  45   6    -0.02   0.01  -0.02    -0.02   0.05  -0.02     0.01   0.00   0.04
  46   6     0.05  -0.04   0.04     0.01   0.03   0.00    -0.02   0.03   0.02
  47   6     0.04  -0.05   0.03     0.04   0.00   0.03    -0.03   0.04   0.01
  48   6    -0.01   0.01  -0.04     0.05   0.00   0.04    -0.02   0.03   0.03
  49   1    -0.01   0.03  -0.05     0.01  -0.02   0.04     0.01  -0.01   0.03
  50   1    -0.01   0.03  -0.03     0.01  -0.06   0.04     0.01  -0.01   0.01
  51   1    -0.00  -0.03   0.04    -0.01   0.02  -0.07    -0.00   0.01  -0.03
  52   1    -0.00  -0.04   0.04    -0.02   0.06  -0.07    -0.00   0.02  -0.02
  53   1    -0.05   0.02   0.06    -0.09  -0.01   0.05    -0.01   0.00  -0.01
  54   1    -0.05   0.01   0.05    -0.12  -0.00   0.06    -0.03   0.00   0.01
  55   1     0.08   0.00  -0.07     0.10  -0.02  -0.08     0.00   0.00  -0.00
  56   1     0.07   0.01  -0.05     0.12  -0.03  -0.10     0.02  -0.00  -0.02
  57   1    -0.05  -0.04  -0.01     0.02   0.00   0.03     0.06   0.04   0.01
  58   1    -0.07  -0.03  -0.01     0.06   0.02   0.04     0.09   0.02   0.02
  59   1     0.05  -0.00   0.01    -0.01   0.01   0.01    -0.07  -0.03   0.00
  60   1     0.06  -0.00   0.01    -0.06  -0.02  -0.00    -0.11  -0.02  -0.00
  61   1     0.02   0.05   0.08     0.02   0.02   0.06     0.03   0.01   0.08
  62   1     0.01   0.04   0.09     0.01   0.01   0.02     0.03   0.02   0.10
  63   1    -0.03  -0.02  -0.07    -0.00  -0.02  -0.07    -0.02  -0.06  -0.12
  64   1    -0.03  -0.02  -0.08     0.01  -0.01  -0.03    -0.02  -0.07  -0.12
  65   1     0.00  -0.04   0.04     0.02  -0.00  -0.00     0.02   0.06  -0.06
  66   1     0.01  -0.05   0.05    -0.00  -0.00   0.03     0.03   0.09  -0.10
  67   1     0.04   0.02  -0.05    -0.02   0.00  -0.02    -0.02  -0.03   0.07
  68   1     0.03   0.04  -0.05    -0.01   0.01  -0.05    -0.01  -0.06   0.12
  69   1    -0.06  -0.13  -0.00     0.02   0.10   0.01    -0.02  -0.07  -0.01
  70   1    -0.06  -0.12   0.01     0.03   0.10   0.01    -0.03  -0.09  -0.01
  71   1     0.04   0.11   0.02    -0.04  -0.07   0.01     0.03   0.04  -0.01
  72   1     0.04   0.10   0.01    -0.04  -0.06   0.01     0.03   0.07  -0.02
  73   1    -0.02   0.01  -0.02    -0.07  -0.02  -0.02     0.04  -0.00   0.02
  74   1    -0.03  -0.01  -0.03    -0.04  -0.01  -0.02     0.03   0.01   0.04
  75   1     0.03   0.00   0.00     0.09   0.01   0.03    -0.06   0.00  -0.02
  76   1     0.03   0.01   0.01     0.05   0.01   0.03    -0.04  -0.01  -0.03
  77   1    -0.04   0.03  -0.03     0.01   0.00   0.01     0.00   0.00   0.01
  78   1    -0.04   0.04  -0.03    -0.01   0.01  -0.01     0.01  -0.01   0.02
  79   1     0.03  -0.03   0.02    -0.00   0.01  -0.00    -0.01   0.01   0.00
  80   1     0.03  -0.03   0.02     0.02  -0.01   0.01    -0.02   0.02  -0.00
                     13                     14                     15
                        a                      a                      a 
 Frequencies --   146.2247               151.4429               164.7673
 Red. masses --    10.6050                10.0539                10.3669
 Frc consts  --     0.0000                 0.0000                 0.0000
 IR Inten    --     0.0021                 0.0709                 0.0578
 Raman Activ --     0.0000                 0.0000                 0.0000
 Depolar     --     0.0000                 0.0000                 0.0000
 Atom AN      X      Y      Z        X      Y      Z        X      Y      Z
   1   6    -0.05   0.13  -0.12    -0.05  -0.07   0.13     0.06  -0.14   0.14
   2   6    -0.06   0.05  -0.01    -0.07  -0.11   0.19     0.06  -0.18   0.07
   3   6    -0.09  -0.04   0.12    -0.05  -0.03   0.05     0.04  -0.12  -0.09
   4   6    -0.07  -0.05   0.13    -0.01   0.13  -0.10    -0.01  -0.03  -0.14
   5   6    -0.05   0.02   0.02    -0.00   0.16  -0.16    -0.03   0.03  -0.10
   6   6    -0.05   0.11  -0.10    -0.02   0.03  -0.04     0.01  -0.03   0.02
   7   6    -0.07  -0.03   0.09    -0.11  -0.03   0.08    -0.03  -0.02  -0.11
   8   6     0.04  -0.02   0.01    -0.08  -0.02   0.06    -0.10   0.08  -0.02
   9   6     0.15  -0.03  -0.04     0.01  -0.04   0.00    -0.10   0.12   0.07
  10   6     0.15  -0.04  -0.02     0.08  -0.04  -0.04    -0.05   0.05   0.11
  11   6     0.02  -0.04   0.06     0.05  -0.05  -0.03     0.02  -0.05   0.03
  12   6    -0.09  -0.05   0.12    -0.05  -0.05   0.04     0.04  -0.08  -0.09
  13   6     0.24   0.04   0.03     0.03  -0.00   0.03    -0.13   0.06  -0.06
  14   6     0.14   0.03   0.01     0.01   0.03   0.04    -0.13  -0.01  -0.10
  15   6    -0.08  -0.03  -0.09    -0.00   0.05   0.01     0.01  -0.02  -0.01
  16   6    -0.21  -0.05  -0.12     0.02   0.04  -0.01     0.19   0.02   0.13
  17   6    -0.11  -0.04  -0.10     0.04   0.01  -0.01     0.17   0.10   0.16
  18   6     0.13  -0.01  -0.03     0.03  -0.01   0.00    -0.03   0.13   0.06
  19   6    -0.04  -0.02  -0.05    -0.05   0.00  -0.11    -0.02  -0.05  -0.06
  20   6     0.00  -0.01   0.05    -0.06  -0.00  -0.13    -0.00  -0.04  -0.02
  21   6     0.01  -0.01   0.13    -0.04   0.03  -0.05     0.00  -0.02   0.02
  22   6    -0.02  -0.02   0.10    -0.01   0.06   0.05    -0.03  -0.05  -0.07
  23   6    -0.06  -0.04  -0.02     0.00   0.08   0.08    -0.04  -0.06  -0.10
  24   6    -0.08  -0.04  -0.09    -0.02   0.05  -0.01    -0.02  -0.05  -0.05
  25   6     0.00  -0.06   0.18    -0.04   0.01  -0.04     0.02  -0.07   0.23
  26   6     0.01  -0.01   0.10    -0.03  -0.03  -0.01    -0.01  -0.00   0.19
  27   6     0.03   0.11  -0.05    -0.01  -0.06   0.03    -0.03   0.14   0.01
  28   6     0.05   0.14  -0.14    -0.01  -0.06   0.07    -0.03   0.14  -0.11
  29   6     0.03   0.08  -0.06    -0.02  -0.01   0.04    -0.01   0.07  -0.09
  30   6     0.01  -0.01   0.12    -0.03   0.02  -0.03     0.00  -0.02   0.08
  31   6    -0.00   0.11  -0.05     0.01  -0.07   0.02     0.01   0.07   0.01
  32   6    -0.07  -0.01  -0.04     0.04  -0.01   0.01     0.00  -0.09  -0.02
  33   6    -0.11  -0.10  -0.02     0.08   0.07   0.01    -0.02  -0.13  -0.07
  34   6    -0.07  -0.08  -0.00     0.08   0.11   0.00    -0.03  -0.03  -0.09
  35   6    -0.01   0.02  -0.02     0.04   0.05   0.00    -0.02   0.12  -0.06
  36   6     0.02   0.12  -0.05     0.01  -0.05   0.01    -0.00   0.16  -0.01
  37   6     0.07  -0.02   0.04     0.24   0.15   0.06     0.13  -0.08   0.03
  38   6     0.18   0.00   0.07     0.16   0.09   0.02     0.16  -0.02   0.11
  39   6     0.13  -0.03   0.05    -0.04  -0.03  -0.07     0.06   0.01   0.05
  40   6    -0.04  -0.07   0.01    -0.24  -0.08  -0.08    -0.02   0.00  -0.04
  41   6    -0.16  -0.10  -0.03    -0.18  -0.03  -0.02    -0.04  -0.06  -0.10
  42   6    -0.10  -0.09  -0.01     0.07   0.08   0.02     0.01  -0.12  -0.07
  43   6     0.08  -0.02   0.02    -0.08   0.05  -0.13    -0.01   0.04   0.05
  44   6    -0.01   0.05  -0.06    -0.09   0.08  -0.12    -0.02   0.03   0.03
  45   6    -0.04   0.11  -0.11     0.01  -0.03  -0.03    -0.01   0.03   0.02
  46   6    -0.00   0.07  -0.07     0.17  -0.19   0.11    -0.03   0.08  -0.01
  47   6     0.09   0.00   0.00     0.18  -0.21   0.08    -0.02   0.07   0.02
  48   6     0.13  -0.04   0.04     0.02  -0.07  -0.07     0.02   0.04   0.06
  49   1    -0.01   0.06  -0.06    -0.02  -0.04   0.06     0.03  -0.06   0.07
  50   1    -0.02   0.02  -0.01    -0.03  -0.07   0.09     0.03  -0.08   0.04
  51   1    -0.02  -0.03   0.06     0.00   0.06  -0.05    -0.01  -0.00  -0.06
  52   1    -0.01   0.00   0.01     0.00   0.07  -0.08    -0.02   0.03  -0.05
  53   1    -0.04  -0.01   0.04    -0.05  -0.01   0.04    -0.01  -0.01  -0.06
  54   1     0.01  -0.00  -0.00    -0.04  -0.01   0.02    -0.05   0.04  -0.01
  55   1     0.07  -0.01  -0.02     0.04  -0.01  -0.03    -0.02   0.02   0.06
  56   1     0.01  -0.02   0.02     0.03  -0.02  -0.02     0.02  -0.03   0.01
  57   1     0.12   0.02   0.02     0.01  -0.01   0.01    -0.06   0.03  -0.04
  58   1     0.07   0.01   0.01     0.00   0.01   0.02    -0.07  -0.01  -0.06
  59   1    -0.11  -0.02  -0.05     0.01   0.02  -0.01     0.09  -0.00   0.07
  60   1    -0.06  -0.02  -0.04     0.01   0.00  -0.01     0.09   0.05   0.08
  61   1    -0.01  -0.01  -0.03    -0.02  -0.00  -0.05    -0.00  -0.01  -0.02
  62   1     0.01   0.00   0.02    -0.02  -0.01  -0.06    -0.00  -0.01   0.00
  63   1    -0.01  -0.01   0.05     0.00   0.03   0.04    -0.01  -0.02  -0.02
  64   1    -0.03  -0.02  -0.01     0.01   0.03   0.05    -0.01  -0.02  -0.04
  65   1    -0.00  -0.04   0.09    -0.01   0.01  -0.02     0.01  -0.04   0.10
  66   1     0.00  -0.01   0.05    -0.01  -0.01  -0.01    -0.00  -0.01   0.09
  67   1     0.02   0.06  -0.07     0.00  -0.02   0.03    -0.01   0.06  -0.06
  68   1     0.01   0.04  -0.04    -0.00  -0.01   0.02    -0.00   0.03  -0.05
  69   1     0.00   0.05  -0.02    -0.00  -0.04   0.01     0.01   0.03   0.01
  70   1    -0.03  -0.01  -0.02     0.01  -0.01   0.00    -0.00  -0.05  -0.00
  71   1    -0.03  -0.04   0.00     0.03   0.05  -0.00    -0.01  -0.02  -0.04
  72   1     0.00   0.01  -0.00     0.01   0.02   0.00    -0.01   0.06  -0.02
  73   1     0.03  -0.00   0.02     0.12   0.07   0.03     0.06  -0.04   0.02
  74   1     0.09   0.01   0.03     0.08   0.04   0.01     0.07  -0.00   0.06
  75   1    -0.03  -0.03  -0.00    -0.12  -0.05  -0.04    -0.02   0.01  -0.02
  76   1    -0.08  -0.04  -0.02    -0.09  -0.02  -0.00    -0.03  -0.02  -0.05
  77   1     0.03  -0.02   0.01    -0.04   0.04  -0.06    -0.01   0.01   0.02
  78   1    -0.01   0.02  -0.02    -0.04   0.05  -0.05    -0.01   0.00   0.01
  79   1    -0.01   0.03  -0.03     0.08  -0.09   0.06    -0.02   0.03  -0.01
  80   1     0.04  -0.00   0.01     0.09  -0.10   0.05    -0.01   0.03   0.00
                     16                     17                     18
                        a                      a                      a 
 Frequencies --   165.3066               171.8434               174.1529
 Red. masses --    11.0408                10.4034                10.5288
 Frc consts  --     0.0000                 0.0000                 0.0000
 IR Inten    --     0.0174                 0.0180                 0.0005
 Raman Activ --     0.0000                 0.0000                 0.0000
 Depolar     --     0.0000                 0.0000                 0.0000
 Atom AN      X      Y      Z        X      Y      Z        X      Y      Z
   1   6     0.01   0.04  -0.07     0.00  -0.09   0.01    -0.00  -0.01   0.06
   2   6     0.02   0.03  -0.07     0.00  -0.03  -0.02     0.01   0.08  -0.01
   3   6     0.04   0.05  -0.09     0.04   0.04  -0.08     0.03   0.09   0.00
   4   6     0.00   0.09  -0.11     0.08   0.10  -0.16     0.01  -0.04   0.12
   5   6    -0.01   0.11  -0.13     0.07   0.04  -0.13     0.01  -0.13   0.21
   6   6    -0.03   0.07  -0.09     0.04  -0.09  -0.01     0.01  -0.07   0.14
   7   6     0.17   0.01  -0.14    -0.03   0.03   0.02     0.11   0.06  -0.04
   8   6     0.18   0.02  -0.12    -0.06   0.02   0.04     0.05  -0.01  -0.02
   9   6     0.11   0.04  -0.03    -0.04   0.02   0.02    -0.08  -0.03  -0.02
  10   6     0.04   0.05  -0.00    -0.09   0.02   0.05    -0.09   0.01  -0.05
  11   6     0.03   0.05  -0.01    -0.07   0.03   0.03    -0.02   0.08  -0.08
  12   6     0.07   0.04  -0.08    -0.00   0.03  -0.01     0.06   0.11  -0.05
  13   6     0.10   0.04   0.04     0.25   0.06   0.00    -0.05  -0.02  -0.00
  14   6     0.10   0.04   0.05     0.27  -0.01  -0.01     0.07  -0.01   0.04
  15   6     0.09   0.02   0.06     0.07  -0.13  -0.05     0.07  -0.03   0.05
  16   6     0.13   0.02   0.03    -0.06  -0.13  -0.02    -0.10  -0.05  -0.01
  17   6     0.15   0.03   0.03    -0.10  -0.07   0.01    -0.23  -0.07  -0.04
  18   6     0.12   0.04   0.00     0.04   0.00   0.00    -0.15  -0.06  -0.01
  19   6     0.07   0.05   0.20    -0.08  -0.12  -0.05     0.08  -0.01   0.12
  20   6     0.06   0.05   0.21    -0.13   0.01   0.05     0.03  -0.00   0.04
  21   6     0.03  -0.02   0.12    -0.09   0.12   0.10     0.03   0.01  -0.08
  22   6     0.03  -0.03   0.04     0.01   0.12   0.06     0.05   0.00  -0.11
  23   6     0.04  -0.03   0.03     0.06  -0.01  -0.04     0.10  -0.01  -0.03
  24   6     0.07   0.02   0.09     0.01  -0.12  -0.09     0.11  -0.02   0.08
  25   6    -0.02  -0.08   0.11    -0.13  -0.02   0.13     0.02  -0.01   0.03
  26   6    -0.02  -0.09   0.11    -0.09  -0.12   0.11    -0.04  -0.01   0.14
  27   6    -0.04  -0.08   0.08     0.02  -0.03  -0.00    -0.10   0.04   0.08
  28   6    -0.02  -0.05   0.11     0.10   0.13  -0.12    -0.07   0.09  -0.12
  29   6    -0.02  -0.05   0.13     0.03   0.22  -0.09    -0.02   0.10  -0.25
  30   6     0.01  -0.04   0.12    -0.09   0.13   0.07     0.00   0.04  -0.13
  31   6    -0.05  -0.02   0.04    -0.01  -0.14  -0.00    -0.01   0.05   0.12
  32   6    -0.05  -0.02   0.03     0.02  -0.09  -0.01     0.07   0.03   0.07
  33   6    -0.08  -0.08  -0.00     0.07   0.02  -0.01     0.04  -0.02   0.00
  34   6    -0.10  -0.19   0.01     0.06   0.02  -0.01    -0.06  -0.07  -0.04
  35   6    -0.10  -0.19   0.02     0.04  -0.03  -0.01    -0.14  -0.05   0.02
  36   6    -0.06  -0.09   0.06     0.03  -0.08  -0.00    -0.11   0.02   0.10
  37   6    -0.07  -0.04  -0.04    -0.06   0.00   0.00     0.29   0.07   0.05
  38   6    -0.07  -0.02  -0.04    -0.15   0.01   0.01     0.21   0.04   0.02
  39   6    -0.10  -0.00  -0.07    -0.12   0.07   0.01     0.00  -0.04  -0.07
  40   6    -0.16  -0.02  -0.06     0.03   0.11   0.02    -0.08  -0.06  -0.08
  41   6    -0.14  -0.02  -0.05     0.13   0.10   0.01    -0.01  -0.03  -0.04
  42   6    -0.09  -0.05  -0.02     0.07   0.06   0.01     0.13   0.01  -0.02
  43   6    -0.15   0.12  -0.12    -0.09   0.01   0.02    -0.06   0.04  -0.11
  44   6    -0.14   0.13  -0.13    -0.00  -0.09   0.05    -0.03   0.05  -0.04
  45   6    -0.05   0.06  -0.09     0.05  -0.12   0.04    -0.01  -0.04   0.05
  46   6    -0.01  -0.01  -0.04     0.05  -0.07   0.03    -0.03  -0.06   0.04
  47   6    -0.02  -0.02  -0.05    -0.03   0.02   0.02    -0.07  -0.05  -0.04
  48   6    -0.09   0.02  -0.08    -0.11   0.06   0.00    -0.06  -0.03  -0.10
  49   1     0.01   0.01  -0.01    -0.00  -0.04   0.02    -0.00  -0.00   0.01
  50   1     0.01   0.01  -0.02    -0.01  -0.02   0.01     0.01   0.04  -0.02
  51   1    -0.00   0.03  -0.04     0.03   0.05  -0.06     0.01  -0.01   0.04
  52   1    -0.00   0.04  -0.05     0.03   0.02  -0.06     0.00  -0.06   0.09
  53   1     0.07   0.00  -0.05    -0.01   0.01   0.01     0.05   0.02  -0.01
  54   1     0.07   0.01  -0.05    -0.02   0.00   0.02     0.03  -0.02   0.00
  55   1    -0.00   0.02   0.01    -0.03   0.01   0.02    -0.05   0.00  -0.02
  56   1    -0.00   0.01   0.01    -0.02   0.01   0.01    -0.02   0.04  -0.03
  57   1     0.03   0.01   0.01     0.11   0.04  -0.00    -0.01  -0.00  -0.00
  58   1     0.03   0.01   0.01     0.13   0.00  -0.01     0.05   0.00   0.02
  59   1     0.04   0.01   0.01    -0.04  -0.05  -0.00    -0.03  -0.02  -0.00
  60   1     0.05   0.01   0.01    -0.07  -0.03   0.01    -0.10  -0.03  -0.02
  61   1     0.02   0.02   0.08    -0.04  -0.06  -0.02     0.03  -0.00   0.06
  62   1     0.03   0.02   0.08    -0.06   0.00   0.03    -0.00  -0.00   0.02
  63   1     0.01  -0.01  -0.00     0.01   0.06   0.03     0.01  -0.00  -0.06
  64   1     0.00  -0.02  -0.00     0.03  -0.00  -0.02     0.04  -0.01  -0.02
  65   1    -0.01  -0.02   0.03    -0.06  -0.02   0.05     0.02  -0.01   0.03
  66   1    -0.01  -0.03   0.04    -0.04  -0.07   0.06    -0.01  -0.01   0.08
  67   1     0.00  -0.01   0.03     0.06   0.06  -0.06    -0.03   0.03  -0.05
  68   1    -0.01  -0.02   0.04     0.02   0.10  -0.05    -0.01   0.05  -0.12
  69   1    -0.01   0.01   0.01    -0.01  -0.06  -0.00     0.00   0.03   0.05
  70   1    -0.01   0.01   0.01     0.00  -0.04   0.00     0.04   0.02   0.03
  71   1    -0.04  -0.07   0.01     0.02   0.02  -0.00    -0.03  -0.03  -0.03
  72   1    -0.04  -0.07   0.00     0.01  -0.01  -0.00    -0.06  -0.02  -0.00
  73   1    -0.02  -0.01  -0.01    -0.03  -0.01  -0.00     0.13   0.03   0.03
  74   1    -0.02  -0.01  -0.00    -0.07  -0.01   0.00     0.08   0.02   0.01
  75   1    -0.06  -0.01  -0.02     0.02   0.05   0.01    -0.06  -0.03  -0.04
  76   1    -0.04  -0.01  -0.02     0.07   0.04   0.00    -0.02  -0.02  -0.01
  77   1    -0.05   0.05  -0.05    -0.04   0.01   0.00    -0.02   0.02  -0.05
  78   1    -0.06   0.05  -0.05     0.00  -0.04   0.02    -0.01   0.03  -0.02
  79   1     0.01  -0.02   0.00     0.03  -0.03   0.01    -0.00  -0.03   0.03
  80   1     0.01  -0.02  -0.00    -0.01   0.01   0.00    -0.02  -0.02  -0.01
                     19                     20                     21
                        a                      a                      a 
 Frequencies --   179.7917               201.6159               218.5587
 Red. masses --    10.6585                10.4872                11.1316
 Frc consts  --     0.0000                 0.0000                 0.0000
 IR Inten    --     0.0116                 0.0106                 0.7065
 Raman Activ --     0.0000                 0.0000                 0.0000
 Depolar     --     0.0000                 0.0000                 0.0000
 Atom AN      X      Y      Z        X      Y      Z        X      Y      Z
   1   6     0.05   0.16  -0.13    -0.08  -0.10  -0.06     0.12  -0.01   0.08
   2   6     0.07   0.16  -0.21    -0.12   0.00   0.05     0.12  -0.01   0.06
   3   6     0.03   0.05  -0.09    -0.02   0.09   0.07     0.08  -0.02   0.03
   4   6    -0.02   0.00  -0.02     0.12   0.14  -0.05     0.11  -0.04   0.05
   5   6    -0.03   0.02   0.04     0.14   0.00  -0.12     0.11  -0.05   0.09
   6   6     0.00   0.07   0.03     0.04  -0.14  -0.09     0.14  -0.01   0.08
   7   6    -0.07  -0.05   0.07    -0.01   0.03   0.15    -0.15  -0.01   0.16
   8   6    -0.10  -0.10   0.07     0.09  -0.06   0.05    -0.19  -0.02   0.16
   9   6    -0.04  -0.12  -0.00     0.10  -0.09  -0.03    -0.14  -0.05   0.03
  10   6     0.02  -0.08  -0.10     0.01  -0.03  -0.03    -0.11  -0.07   0.05
  11   6     0.04  -0.03  -0.11    -0.07   0.06   0.04    -0.06  -0.06   0.04
  12   6    -0.01  -0.02  -0.04    -0.05   0.08   0.13    -0.00  -0.04   0.08
  13   6     0.07  -0.04   0.09    -0.01  -0.09   0.05    -0.05  -0.02  -0.08
  14   6     0.13   0.06   0.14    -0.07   0.01   0.07    -0.05  -0.01  -0.10
  15   6     0.09   0.09   0.09    -0.06   0.10   0.01    -0.03   0.03  -0.12
  16   6     0.10   0.08   0.01    -0.06   0.08  -0.09    -0.04   0.04  -0.08
  17   6     0.07  -0.01  -0.03     0.04  -0.02  -0.10    -0.06   0.02  -0.07
  18   6     0.01  -0.08  -0.00     0.08  -0.09  -0.03    -0.07  -0.02  -0.03
  19   6    -0.03   0.04  -0.08     0.05   0.11  -0.00     0.05   0.06  -0.16
  20   6    -0.05   0.01  -0.17     0.11  -0.00  -0.06     0.10   0.06  -0.09
  21   6    -0.04   0.02  -0.11     0.08  -0.09  -0.05     0.11   0.05   0.02
  22   6    -0.01   0.05  -0.03    -0.01  -0.09  -0.00     0.05   0.04  -0.00
  23   6     0.02   0.08   0.05    -0.07   0.02   0.03    -0.00   0.04  -0.11
  24   6     0.02   0.10   0.04    -0.03   0.11   0.03    -0.01   0.05  -0.14
  25   6    -0.02  -0.09   0.13     0.12  -0.02   0.05     0.10   0.02   0.09
  26   6    -0.04  -0.12   0.20     0.05   0.11   0.05     0.10   0.01   0.08
  27   6    -0.05  -0.06   0.11    -0.05   0.13   0.02     0.07   0.01   0.07
  28   6    -0.05  -0.06   0.10    -0.11   0.02  -0.00     0.09   0.03   0.11
  29   6    -0.04  -0.04   0.04    -0.04  -0.08  -0.04     0.09   0.02   0.14
  30   6    -0.02  -0.01  -0.01     0.08  -0.09  -0.02     0.11   0.04   0.11
  31   6     0.04  -0.02   0.04    -0.01   0.03   0.05    -0.06  -0.06   0.05
  32   6     0.09  -0.05  -0.01     0.02  -0.09  -0.00    -0.10  -0.08   0.05
  33   6     0.09  -0.03  -0.08     0.00  -0.12  -0.08    -0.11  -0.07   0.01
  34   6     0.09   0.09  -0.10    -0.06  -0.09  -0.11    -0.08  -0.21   0.05
  35   6     0.04   0.13  -0.06    -0.08   0.06  -0.05    -0.05  -0.21   0.05
  36   6     0.01   0.03   0.03    -0.05   0.12   0.01     0.01  -0.07   0.08
  37   6    -0.00  -0.10  -0.03     0.03  -0.09   0.05    -0.07   0.02  -0.09
  38   6    -0.06  -0.06   0.01    -0.02   0.01   0.14    -0.05   0.02  -0.10
  39   6    -0.11  -0.00  -0.02    -0.08   0.12   0.09    -0.05   0.06  -0.12
  40   6    -0.21  -0.02  -0.11     0.05   0.16   0.01    -0.10   0.04  -0.08
  41   6    -0.12  -0.06  -0.14     0.14   0.08  -0.07    -0.09   0.04  -0.05
  42   6     0.02  -0.09  -0.09     0.06  -0.06  -0.06    -0.08  -0.00  -0.02
  43   6     0.11  -0.05   0.13    -0.19   0.02   0.03     0.04   0.12  -0.12
  44   6     0.12  -0.05   0.16    -0.06  -0.16   0.00     0.09   0.11  -0.05
  45   6     0.02   0.04   0.11     0.05  -0.18  -0.05     0.12   0.04   0.02
  46   6    -0.08   0.08   0.03     0.10  -0.08  -0.04     0.07   0.03  -0.01
  47   6    -0.11   0.08   0.00     0.02   0.07   0.02    -0.00   0.06  -0.10
  48   6    -0.04   0.02   0.06    -0.13   0.11   0.05    -0.01   0.07  -0.12
  49   1     0.02   0.06  -0.05    -0.05  -0.04  -0.03     0.03  -0.00   0.02
  50   1     0.03   0.07  -0.09    -0.07   0.00   0.03     0.04  -0.01   0.02
  51   1    -0.02  -0.02   0.00     0.06   0.07  -0.02     0.03  -0.01   0.02
  52   1    -0.01  -0.01   0.03     0.07   0.01  -0.06     0.03  -0.02   0.04
  53   1    -0.02  -0.01   0.04    -0.01   0.01   0.07    -0.06  -0.00   0.05
  54   1    -0.04  -0.03   0.03     0.05  -0.03   0.02    -0.07  -0.01   0.07
  55   1     0.02  -0.03  -0.05     0.00  -0.01  -0.03    -0.03  -0.02   0.02
  56   1     0.03  -0.01  -0.05    -0.04   0.03   0.01    -0.02  -0.01  -0.00
  57   1     0.01  -0.03   0.04    -0.01  -0.05   0.03    -0.02   0.00  -0.03
  58   1     0.05   0.02   0.06    -0.04   0.01   0.04    -0.03  -0.00  -0.02
  59   1     0.03   0.04  -0.01    -0.03   0.04  -0.05    -0.01   0.00  -0.02
  60   1     0.02  -0.01  -0.02     0.02  -0.01  -0.05    -0.03   0.00  -0.03
  61   1    -0.01   0.01  -0.03     0.03   0.06   0.00     0.02   0.03  -0.06
  62   1    -0.02  -0.01  -0.07     0.05  -0.00  -0.04     0.04   0.02  -0.03
  63   1    -0.00   0.02   0.00    -0.01  -0.05   0.00     0.01   0.01   0.02
  64   1     0.01   0.04   0.04    -0.04   0.00   0.02    -0.01   0.01  -0.04
  65   1    -0.00  -0.03   0.04     0.06  -0.01   0.03     0.02   0.01   0.03
  66   1    -0.02  -0.04   0.08     0.03   0.05   0.03     0.03   0.00   0.03
  67   1    -0.02  -0.02   0.03    -0.06   0.00   0.00     0.03   0.01   0.03
  68   1    -0.01  -0.01  -0.00    -0.02  -0.05  -0.02     0.02  -0.00   0.05
  69   1     0.01  -0.02   0.03     0.00   0.02   0.03    -0.02  -0.01  -0.00
  70   1     0.03  -0.04   0.00     0.02  -0.04   0.01    -0.03  -0.03   0.02
  71   1     0.03   0.04  -0.04    -0.03  -0.05  -0.05    -0.03  -0.08   0.03
  72   1     0.00   0.06  -0.02    -0.03   0.04  -0.02    -0.02  -0.07   0.01
  73   1     0.01  -0.04  -0.00     0.01  -0.05   0.02    -0.03   0.01  -0.03
  74   1    -0.01  -0.02   0.03    -0.01  -0.00   0.07    -0.02   0.01  -0.02
  75   1    -0.09  -0.00  -0.05     0.02   0.08  -0.00    -0.04  -0.00  -0.02
  76   1    -0.04  -0.01  -0.06     0.07   0.04  -0.04    -0.03   0.01  -0.02
  77   1     0.05  -0.03   0.04    -0.09   0.02   0.02     0.01   0.04  -0.05
  78   1     0.05  -0.03   0.06    -0.02  -0.08   0.01     0.03   0.04  -0.02
  79   1    -0.04   0.04  -0.00     0.06  -0.03  -0.02     0.02  -0.00   0.01
  80   1    -0.06   0.05  -0.02     0.02   0.04   0.01    -0.02   0.02  -0.03
                     22                     23                     24
                        a                      a                      a 
 Frequencies --   222.4903               239.1525               243.3017
 Red. masses --    11.1005                10.9044                10.8635
 Frc consts  --     0.0000                 0.0000                 0.0000
 IR Inten    --     0.7711                 0.0712                 0.0197
 Raman Activ --     0.0000                 0.0000                 0.0000
 Depolar     --     0.0000                 0.0000                 0.0000
 Atom AN      X      Y      Z        X      Y      Z        X      Y      Z
   1   6    -0.05  -0.00   0.05    -0.06  -0.12   0.13     0.06   0.08  -0.01
   2   6    -0.07  -0.04   0.06    -0.05  -0.00   0.05     0.10   0.12  -0.21
   3   6    -0.12  -0.07   0.04    -0.01   0.10  -0.06     0.06   0.04  -0.16
   4   6    -0.08  -0.07   0.03     0.01   0.01   0.02    -0.04   0.05  -0.13
   5   6    -0.06  -0.04   0.02     0.00  -0.15   0.15    -0.07   0.08  -0.01
   6   6    -0.01  -0.01   0.05     0.00  -0.14   0.12    -0.02   0.03   0.12
   7   6    -0.18  -0.01  -0.05     0.00   0.06  -0.01    -0.06  -0.06   0.03
   8   6    -0.11   0.06  -0.10    -0.07  -0.05   0.00    -0.08  -0.05   0.05
   9   6     0.01   0.07  -0.10    -0.13  -0.08  -0.05     0.02  -0.05   0.03
  10   6     0.00   0.02  -0.04    -0.16  -0.02  -0.12    -0.00  -0.04   0.02
  11   6    -0.10  -0.06   0.02    -0.06   0.10  -0.16     0.00  -0.04  -0.01
  12   6    -0.14  -0.07   0.01     0.02   0.13  -0.11    -0.00  -0.05  -0.06
  13   6     0.05   0.07  -0.12     0.07  -0.02   0.03     0.13   0.01   0.08
  14   6     0.02   0.05  -0.12     0.20   0.08   0.11     0.02   0.03   0.07
  15   6     0.02   0.02  -0.09     0.12   0.09   0.07    -0.11   0.03  -0.01
  16   6     0.05   0.02  -0.10     0.16   0.08  -0.01     0.03   0.04   0.01
  17   6     0.09   0.06  -0.09     0.12  -0.01  -0.06     0.21   0.03   0.03
  18   6     0.08   0.08  -0.12    -0.03  -0.07  -0.06     0.15   0.00   0.03
  19   6     0.10   0.09   0.19    -0.05   0.03  -0.05    -0.06   0.02  -0.06
  20   6     0.10   0.07   0.22    -0.05   0.02  -0.05     0.04  -0.05   0.03
  21   6     0.05  -0.03   0.12    -0.06  -0.00   0.04     0.03  -0.10   0.12
  22   6     0.08  -0.02   0.11    -0.03   0.00   0.01    -0.07  -0.12   0.11
  23   6     0.07  -0.02   0.07    -0.02   0.02   0.00    -0.18  -0.07  -0.01
  24   6     0.08   0.03   0.02     0.01   0.07   0.00    -0.16   0.00  -0.07
  25   6    -0.03  -0.07   0.01    -0.08  -0.10   0.11     0.05   0.03  -0.03
  26   6    -0.06  -0.08   0.04    -0.03  -0.09   0.00     0.05   0.17  -0.15
  27   6    -0.12  -0.07   0.02     0.03  -0.01  -0.10     0.02   0.14  -0.10
  28   6    -0.09  -0.04   0.02     0.02  -0.04   0.03    -0.01   0.09  -0.14
  29   6    -0.07  -0.05   0.01    -0.03  -0.09   0.21     0.01  -0.01  -0.09
  30   6    -0.01  -0.04   0.03    -0.04  -0.05   0.16     0.03  -0.08   0.05
  31   6    -0.09  -0.06   0.01    -0.03   0.07  -0.18    -0.03  -0.02   0.02
  32   6     0.01   0.03  -0.04    -0.15   0.01  -0.11    -0.03  -0.01   0.03
  33   6     0.02   0.07  -0.10    -0.16  -0.02  -0.01     0.00   0.02   0.07
  34   6    -0.07   0.00  -0.13    -0.07   0.01   0.02    -0.07  -0.07   0.05
  35   6    -0.15  -0.05  -0.09     0.05   0.03  -0.06    -0.07  -0.08   0.05
  36   6    -0.14  -0.07  -0.00     0.05   0.06  -0.15    -0.04   0.02   0.00
  37   6     0.08   0.11  -0.06     0.04   0.09   0.02     0.18   0.12   0.05
  38   6     0.02   0.10  -0.06     0.17   0.07   0.01     0.04   0.01  -0.05
  39   6     0.01   0.06  -0.05     0.18  -0.00   0.04    -0.06  -0.08  -0.09
  40   6     0.02   0.08  -0.09     0.23   0.01   0.07     0.05  -0.07   0.01
  41   6     0.06   0.09  -0.09     0.02   0.01   0.04     0.12   0.02   0.09
  42   6     0.08   0.12  -0.09    -0.10   0.02   0.00     0.13   0.09   0.07
  43   6     0.19  -0.11   0.10    -0.04   0.00  -0.06    -0.01  -0.02  -0.07
  44   6     0.19  -0.13   0.14    -0.05   0.01  -0.06     0.03   0.02   0.08
  45   6     0.06  -0.06   0.11    -0.01  -0.07   0.01    -0.00  -0.03   0.17
  46   6     0.08  -0.03   0.11    -0.02  -0.02  -0.01    -0.09  -0.09   0.14
  47   6     0.06  -0.01   0.07     0.00  -0.01  -0.02    -0.18  -0.08  -0.03
  48   6     0.08   0.02   0.02     0.06  -0.02  -0.02    -0.13  -0.06  -0.11
  49   1    -0.02  -0.00   0.01    -0.02  -0.05   0.04     0.03   0.02   0.02
  50   1    -0.01  -0.02   0.02    -0.02   0.00   0.01     0.05   0.06  -0.09
  51   1    -0.02  -0.02   0.01     0.01   0.02  -0.00    -0.03   0.01  -0.05
  52   1    -0.02  -0.01   0.01     0.00  -0.06   0.07    -0.03   0.02   0.00
  53   1    -0.07  -0.01  -0.02     0.01   0.03   0.02    -0.02  -0.02   0.01
  54   1    -0.04   0.03  -0.04    -0.01  -0.03   0.02    -0.04  -0.01   0.01
  55   1     0.02   0.01  -0.00    -0.06  -0.01  -0.05     0.01  -0.01  -0.00
  56   1    -0.03  -0.02   0.02    -0.02   0.04  -0.07     0.01  -0.02  -0.01
  57   1     0.02   0.02  -0.03     0.01  -0.02   0.02     0.05  -0.01   0.03
  58   1     0.01   0.01  -0.04     0.09   0.03   0.05     0.00   0.01   0.02
  59   1     0.02   0.01  -0.03     0.05   0.04  -0.01    -0.00   0.02  -0.01
  60   1     0.03   0.02  -0.02     0.04  -0.00  -0.02     0.09   0.02   0.01
  61   1     0.03   0.03   0.07    -0.02   0.00  -0.02    -0.01   0.03  -0.03
  62   1     0.05   0.03   0.08    -0.00   0.01  -0.02     0.03  -0.01   0.00
  63   1     0.02  -0.00   0.03    -0.01   0.01   0.01    -0.03  -0.05   0.05
  64   1     0.00  -0.01   0.02    -0.01   0.01   0.01    -0.08  -0.03  -0.01
  65   1    -0.02  -0.02   0.01    -0.04  -0.03   0.04     0.03  -0.00   0.01
  66   1    -0.02  -0.02   0.03    -0.01  -0.03  -0.00     0.03   0.07  -0.07
  67   1    -0.02  -0.01   0.01     0.02  -0.00  -0.00    -0.02   0.03  -0.05
  68   1    -0.02  -0.02   0.00    -0.01  -0.04   0.09    -0.00  -0.01  -0.03
  69   1    -0.03  -0.03   0.02    -0.01   0.03  -0.07    -0.01   0.00   0.01
  70   1     0.02   0.02  -0.00    -0.07   0.01  -0.04    -0.01   0.01   0.01
  71   1    -0.02   0.00  -0.05    -0.02   0.00   0.03    -0.02  -0.03   0.01
  72   1    -0.06  -0.02  -0.03     0.03   0.01  -0.01    -0.02  -0.04   0.02
  73   1     0.03   0.03  -0.01     0.01   0.03   0.00     0.08   0.05   0.02
  74   1     0.01   0.03  -0.02     0.06   0.03  -0.01    -0.00   0.00  -0.03
  75   1     0.00   0.03  -0.03     0.10   0.01   0.04     0.01  -0.03   0.00
  76   1     0.02   0.03  -0.02    -0.01  -0.01   0.02     0.04   0.00   0.05
  77   1     0.07  -0.04   0.04    -0.02   0.00  -0.02     0.02  -0.00  -0.04
  78   1     0.08  -0.04   0.05    -0.02   0.02  -0.02     0.02   0.02   0.02
  79   1     0.02  -0.01   0.03    -0.00  -0.01  -0.00    -0.03  -0.04   0.06
  80   1     0.00  -0.01   0.02     0.00  -0.01  -0.00    -0.08  -0.03  -0.02
                     25                     26                     27
                        a                      a                      a 
 Frequencies --   261.2382               302.8825               322.7521
 Red. masses --    10.9510                10.6730                10.7081
 Frc consts  --     0.0000                 0.0000                 0.0000
 IR Inten    --     0.0828                 0.0021                 0.2195
 Raman Activ --     0.0000                 0.0000                 0.0000
 Depolar     --     0.0000                 0.0000                 0.0000
 Atom AN      X      Y      Z        X      Y      Z        X      Y      Z
   1   6     0.09  -0.13   0.06    -0.03  -0.08   0.06    -0.04   0.12  -0.07
   2   6     0.10  -0.05  -0.07    -0.05  -0.10   0.14    -0.06   0.12   0.09
   3   6     0.10   0.00  -0.15    -0.00   0.03  -0.01    -0.05   0.08   0.16
   4   6     0.08  -0.01  -0.13    -0.00  -0.06   0.07     0.06   0.13   0.09
   5   6     0.05  -0.06  -0.02     0.00  -0.12   0.10     0.09   0.02   0.06
   6   6     0.06  -0.10   0.05    -0.00  -0.00  -0.06     0.05  -0.01   0.02
   7   6    -0.11   0.07   0.11     0.05   0.07  -0.02     0.03  -0.12  -0.07
   8   6    -0.11   0.07   0.11    -0.05  -0.04   0.02    -0.01  -0.12  -0.07
   9   6     0.02   0.05   0.02    -0.14  -0.06  -0.01    -0.12  -0.10  -0.03
  10   6    -0.11   0.06   0.09    -0.17  -0.00  -0.06     0.03  -0.14  -0.09
  11   6    -0.10   0.06   0.09     0.00   0.10  -0.15     0.05  -0.14  -0.12
  12   6     0.02   0.05  -0.00     0.07   0.12  -0.11    -0.03  -0.11   0.02
  13   6     0.17  -0.04  -0.05     0.07  -0.01   0.05    -0.00   0.16  -0.03
  14   6     0.03  -0.07  -0.08     0.13   0.06   0.09     0.04   0.08  -0.06
  15   6    -0.08  -0.09  -0.13    -0.03   0.03   0.01     0.00   0.01  -0.03
  16   6    -0.08  -0.09  -0.13     0.07   0.04   0.00     0.12   0.05   0.10
  17   6     0.06  -0.06  -0.08     0.16   0.01   0.00     0.01   0.13   0.09
  18   6     0.16  -0.04  -0.05    -0.01  -0.05  -0.02    -0.13   0.12   0.02
  19   6    -0.01   0.11   0.12    -0.05   0.02  -0.05    -0.05  -0.06  -0.06
  20   6     0.00   0.10   0.13     0.04  -0.04   0.04    -0.02   0.01   0.13
  21   6    -0.02   0.03  -0.01     0.03  -0.08   0.14    -0.01   0.02   0.15
  22   6    -0.01   0.07   0.13    -0.05  -0.10   0.13     0.00   0.02   0.11
  23   6    -0.02   0.08   0.11    -0.16  -0.07  -0.04    -0.03  -0.06  -0.07
  24   6    -0.06   0.04  -0.02    -0.13  -0.00  -0.08    -0.05  -0.08  -0.12
  25   6     0.03  -0.02  -0.18     0.03   0.05  -0.04    -0.02   0.02  -0.16
  26   6     0.01  -0.07  -0.06     0.02   0.14  -0.10     0.02  -0.08  -0.12
  27   6    -0.03  -0.14   0.04    -0.03   0.04   0.03     0.04  -0.16   0.00
  28   6    -0.03  -0.16   0.03    -0.03   0.07  -0.08     0.10  -0.06  -0.05
  29   6     0.01  -0.09  -0.09     0.00   0.06  -0.16     0.07   0.01  -0.02
  30   6     0.02  -0.04  -0.17     0.01  -0.04   0.02    -0.00  -0.00   0.01
  31   6     0.01   0.13   0.05     0.01  -0.13   0.13    -0.04   0.13   0.09
  32   6     0.03   0.13   0.04     0.16   0.03   0.06    -0.02   0.13   0.09
  33   6    -0.02   0.01   0.03     0.18   0.08  -0.00    -0.08  -0.02   0.05
  34   6     0.01   0.15   0.03     0.08   0.01  -0.04    -0.04   0.11   0.07
  35   6    -0.01   0.15   0.04    -0.05  -0.06   0.03    -0.05   0.11   0.08
  36   6    -0.05   0.01   0.05    -0.07  -0.10   0.10    -0.08  -0.03   0.09
  37   6     0.01  -0.12  -0.01    -0.14  -0.06  -0.04     0.04  -0.15  -0.02
  38   6     0.12  -0.08   0.04    -0.12  -0.02  -0.02     0.12  -0.04   0.09
  39   6     0.11  -0.06   0.03     0.00   0.02   0.03    -0.01   0.03   0.01
  40   6     0.02  -0.09  -0.01    -0.17  -0.01  -0.04    -0.01   0.04  -0.05
  41   6    -0.07  -0.14  -0.05    -0.07  -0.00  -0.02     0.06  -0.04  -0.11
  42   6    -0.06  -0.14  -0.04     0.06   0.02   0.01    -0.02  -0.16  -0.08
  43   6    -0.09   0.11   0.00     0.08  -0.01   0.07    -0.11   0.06  -0.03
  44   6    -0.09   0.12  -0.00    -0.02   0.03  -0.08     0.03  -0.09   0.01
  45   6     0.00   0.03   0.04    -0.04   0.10  -0.16     0.09  -0.11   0.01
  46   6    -0.08   0.10  -0.01     0.02   0.12  -0.13     0.08  -0.05  -0.02
  47   6    -0.07   0.09  -0.00     0.19   0.02   0.06    -0.03   0.07  -0.05
  48   6     0.01   0.02   0.05     0.16  -0.00   0.11    -0.10   0.08  -0.03
  49   1     0.03  -0.05   0.04    -0.01  -0.03   0.02    -0.03   0.05  -0.06
  50   1     0.03  -0.02  -0.02    -0.02  -0.05   0.06    -0.04   0.04   0.03
  51   1     0.02   0.00  -0.05     0.01  -0.01   0.02     0.04   0.06   0.03
  52   1     0.01  -0.02  -0.01     0.00  -0.05   0.05     0.04  -0.00   0.03
  53   1    -0.04   0.02   0.04     0.03   0.03   0.01     0.01  -0.04  -0.03
  54   1    -0.04   0.02   0.04    -0.01  -0.03   0.02     0.00  -0.04  -0.01
  55   1    -0.04   0.02   0.04    -0.08  -0.00  -0.02     0.03  -0.04  -0.04
  56   1    -0.04   0.02   0.03     0.00   0.04  -0.07     0.03  -0.04  -0.05
  57   1     0.08  -0.00  -0.01     0.01  -0.01   0.02     0.00   0.07  -0.02
  58   1     0.01  -0.02  -0.02     0.06   0.02   0.04     0.02   0.02  -0.04
  59   1    -0.05  -0.03  -0.05     0.02   0.02  -0.01     0.07   0.01   0.05
  60   1     0.02  -0.02  -0.02     0.08   0.01   0.00     0.01   0.04   0.05
  61   1     0.00   0.04   0.04    -0.01   0.02  -0.02    -0.02  -0.03  -0.03
  62   1     0.01   0.03   0.05     0.03  -0.01   0.01    -0.00   0.01   0.06
  63   1     0.00   0.03   0.05    -0.02  -0.04   0.06     0.01   0.02   0.05
  64   1    -0.01   0.03   0.05    -0.07  -0.03  -0.02    -0.01  -0.02  -0.03
  65   1     0.01   0.01  -0.07     0.02   0.01  -0.00    -0.02   0.02  -0.08
  66   1     0.01  -0.02  -0.02     0.01   0.06  -0.05     0.00  -0.03  -0.06
  67   1    -0.02  -0.06   0.03    -0.02   0.02  -0.02     0.05  -0.02  -0.02
  68   1     0.00  -0.03  -0.03     0.00   0.03  -0.07     0.03   0.02   0.00
  69   1     0.01   0.05   0.02    -0.00  -0.06   0.06    -0.00   0.06   0.03
  70   1     0.01   0.05   0.01     0.07   0.02   0.03     0.00   0.06   0.03
  71   1     0.01   0.05   0.01     0.02   0.01  -0.03    -0.01   0.04   0.02
  72   1    -0.00   0.05   0.01    -0.03  -0.02  -0.00    -0.02   0.04   0.02
  73   1     0.01  -0.04  -0.00    -0.07  -0.03  -0.02     0.01  -0.06   0.00
  74   1     0.06  -0.02   0.02    -0.04  -0.01  -0.00     0.06  -0.01   0.07
  75   1    -0.00  -0.03  -0.01    -0.08  -0.01  -0.02    -0.01   0.03  -0.03
  76   1    -0.04  -0.04  -0.02    -0.02   0.00  -0.01     0.03  -0.00  -0.06
  77   1    -0.03   0.04  -0.00     0.02  -0.01   0.04    -0.06   0.03  -0.01
  78   1    -0.03   0.04  -0.01    -0.02   0.00  -0.03     0.01  -0.05   0.01
  79   1    -0.04   0.04  -0.01    -0.00   0.05  -0.06     0.04  -0.02  -0.01
  80   1    -0.03   0.04  -0.01     0.08   0.00   0.03    -0.01   0.04  -0.02
                     28                     29                     30
                        a                      a                      a 
 Frequencies --   327.3869               330.6654               339.1162
 Red. masses --    11.1152                10.7845                10.7368
 Frc consts  --     0.0000                 0.0000                 0.0000
 IR Inten    --     0.0213                 0.1538                 0.0231
 Raman Activ --     0.0000                 0.0000                 0.0000
 Depolar     --     0.0000                 0.0000                 0.0000
 Atom AN      X      Y      Z        X      Y      Z        X      Y      Z
   1   6    -0.11  -0.03  -0.01    -0.06  -0.13  -0.09    -0.04  -0.03   0.00
   2   6    -0.10  -0.07  -0.01    -0.09  -0.06  -0.07    -0.09  -0.04   0.08
   3   6    -0.08  -0.04  -0.04    -0.03  -0.01  -0.04    -0.12  -0.01  -0.01
   4   6    -0.14  -0.05  -0.02     0.03   0.03  -0.13     0.01  -0.02  -0.06
   5   6    -0.14  -0.01  -0.04     0.01  -0.08  -0.12     0.03  -0.12  -0.00
   6   6    -0.12   0.01  -0.04    -0.02  -0.17  -0.04     0.08  -0.07   0.02
   7   6     0.12   0.03  -0.09    -0.01   0.02   0.10    -0.13   0.04  -0.12
   8   6     0.05   0.03  -0.01     0.13  -0.02   0.00    -0.05   0.08  -0.16
   9   6    -0.02   0.04   0.10     0.13  -0.03  -0.00     0.08   0.08  -0.13
  10   6    -0.00   0.09   0.03     0.06   0.01  -0.01     0.06   0.08  -0.13
  11   6     0.08   0.09  -0.04    -0.02   0.06   0.06    -0.17   0.02   0.02
  12   6     0.03   0.07  -0.09    -0.06   0.06   0.08    -0.17   0.00  -0.02
  13   6     0.09  -0.07   0.09    -0.13  -0.06   0.06    -0.02  -0.02   0.05
  14   6     0.07  -0.14   0.06    -0.08   0.05   0.10     0.04   0.05   0.12
  15   6    -0.02  -0.16   0.02     0.01   0.11   0.08    -0.01  -0.00   0.13
  16   6    -0.00  -0.16   0.11    -0.07   0.10   0.00    -0.02  -0.02  -0.02
  17   6    -0.05  -0.13   0.13    -0.02   0.02  -0.02     0.10  -0.05  -0.03
  18   6    -0.02  -0.08   0.11     0.01  -0.04   0.03     0.07  -0.01  -0.08
  19   6    -0.08   0.06  -0.08     0.06  -0.09  -0.10    -0.11  -0.13   0.07
  20   6    -0.04   0.08  -0.06     0.07  -0.09  -0.07    -0.16  -0.10   0.02
  21   6    -0.00   0.13  -0.05     0.08  -0.02   0.09    -0.12  -0.04  -0.08
  22   6    -0.08   0.15   0.03     0.06  -0.08  -0.06    -0.12  -0.06  -0.11
  23   6    -0.10   0.14  -0.02     0.03  -0.10  -0.12    -0.01  -0.03   0.14
  24   6    -0.14   0.03  -0.04     0.06  -0.04   0.01    -0.01  -0.06   0.16
  25   6     0.20  -0.02  -0.03    -0.07   0.09  -0.03     0.01   0.05   0.01
  26   6     0.19  -0.00  -0.00    -0.02  -0.06  -0.03     0.03   0.10  -0.03
  27   6     0.12  -0.03   0.03     0.03  -0.08  -0.00     0.09   0.07   0.04
  28   6     0.12  -0.08   0.09     0.13   0.10  -0.05     0.04  -0.01  -0.02
  29   6     0.16  -0.08   0.05     0.05   0.13   0.10     0.04  -0.00  -0.08
  30   6     0.17  -0.02  -0.04    -0.01   0.10   0.15    -0.05  -0.03  -0.05
  31   6    -0.10   0.06   0.07    -0.09  -0.05   0.03     0.09   0.08   0.06
  32   6    -0.10   0.02   0.05    -0.03   0.15   0.03    -0.04  -0.10   0.10
  33   6    -0.12  -0.01  -0.04    -0.02   0.15   0.01    -0.04  -0.08   0.11
  34   6    -0.11  -0.07  -0.02    -0.02   0.10   0.02     0.06  -0.05   0.17
  35   6    -0.08  -0.01   0.02    -0.07  -0.09   0.03     0.11  -0.05   0.14
  36   6    -0.03   0.05   0.09    -0.07  -0.14   0.06     0.13   0.05   0.07
  37   6     0.08   0.04  -0.10     0.07   0.03  -0.12    -0.03  -0.07  -0.08
  38   6     0.06   0.08  -0.06     0.10  -0.03  -0.14     0.03  -0.02  -0.05
  39   6    -0.01   0.07  -0.08     0.14  -0.08  -0.08    -0.00   0.07  -0.09
  40   6     0.01   0.09  -0.14     0.05  -0.11  -0.12    -0.08   0.04  -0.06
  41   6     0.05   0.07  -0.15    -0.07  -0.09  -0.11    -0.02   0.03  -0.03
  42   6     0.01   0.02  -0.13     0.01   0.01  -0.10    -0.01  -0.08   0.01
  43   6     0.06  -0.07   0.06    -0.05   0.07   0.12     0.13   0.10  -0.05
  44   6     0.06  -0.10   0.07    -0.04   0.03   0.13     0.14   0.10  -0.00
  45   6    -0.07  -0.02   0.02    -0.04  -0.01   0.13     0.13   0.01   0.09
  46   6     0.02  -0.01   0.07    -0.08   0.13   0.09     0.14   0.02   0.08
  47   6     0.05  -0.01   0.09    -0.05   0.12   0.13    -0.03   0.14  -0.08
  48   6     0.02   0.05   0.01     0.05   0.07   0.13     0.01   0.12  -0.09
  49   1    -0.03  -0.01  -0.00    -0.03  -0.05  -0.03    -0.03  -0.02  -0.02
  50   1    -0.03  -0.02  -0.00    -0.04  -0.01  -0.02    -0.02  -0.04   0.04
  51   1    -0.05  -0.02  -0.01     0.02   0.03  -0.06     0.03   0.01  -0.01
  52   1    -0.04   0.00  -0.02     0.02  -0.02  -0.05     0.00  -0.05   0.02
  53   1     0.06   0.01  -0.03    -0.00   0.01   0.05    -0.04   0.01  -0.05
  54   1     0.02   0.01  -0.01     0.06  -0.01  -0.01    -0.02   0.04  -0.06
  55   1    -0.01   0.02   0.01     0.01  -0.00  -0.02     0.05   0.02  -0.05
  56   1     0.04   0.02  -0.01    -0.01   0.02   0.02    -0.07   0.00   0.04
  57   1     0.05  -0.00   0.02    -0.06  -0.04   0.02    -0.01  -0.03   0.04
  58   1     0.03  -0.04   0.01    -0.04   0.01   0.05     0.04   0.02   0.04
  59   1    -0.00  -0.06   0.05    -0.03   0.04  -0.01    -0.01   0.02  -0.03
  60   1    -0.03  -0.04   0.04     0.00   0.00  -0.03     0.05  -0.01  -0.00
  61   1    -0.02   0.03  -0.04     0.01  -0.03  -0.04    -0.04  -0.05   0.02
  62   1    -0.03   0.02  -0.02     0.02  -0.03  -0.03    -0.06  -0.03   0.01
  63   1    -0.02   0.04   0.03     0.01  -0.03  -0.03    -0.04  -0.02  -0.08
  64   1    -0.02   0.04  -0.00     0.00  -0.04  -0.06     0.02   0.01   0.07
  65   1     0.07   0.00  -0.02    -0.05   0.03  -0.03     0.03   0.01   0.01
  66   1     0.06   0.01  -0.00    -0.02  -0.04  -0.01     0.01   0.04  -0.04
  67   1     0.03  -0.04   0.05     0.08   0.05  -0.03    -0.01  -0.00  -0.01
  68   1     0.04  -0.04   0.02     0.02   0.05   0.04     0.02   0.02  -0.04
  69   1    -0.03   0.02   0.02    -0.03  -0.03   0.00     0.03   0.05  -0.00
  70   1    -0.02  -0.00   0.02     0.00   0.07   0.01    -0.03  -0.06   0.02
  71   1    -0.04  -0.04   0.00    -0.00   0.04   0.02     0.02  -0.01   0.07
  72   1    -0.04  -0.00  -0.00    -0.03  -0.04   0.01     0.04  -0.03   0.05
  73   1     0.03   0.00  -0.02     0.03   0.02  -0.03    -0.03  -0.02  -0.03
  74   1     0.03   0.02  -0.01     0.04   0.00  -0.06     0.01  -0.01   0.01
  75   1     0.00   0.03  -0.04     0.01  -0.04  -0.03    -0.05  -0.01  -0.03
  76   1     0.02   0.02  -0.05    -0.05  -0.04  -0.02    -0.00   0.01  -0.03
  77   1     0.02  -0.03   0.03    -0.02   0.02   0.05     0.05   0.02  -0.02
  78   1     0.03  -0.04   0.03    -0.00   0.00   0.05     0.04   0.04  -0.00
  79   1     0.02  -0.00   0.01    -0.04   0.06   0.01     0.05  -0.02   0.05
  80   1     0.02  -0.02   0.03    -0.02   0.04   0.03    -0.05   0.05  -0.04
                     31                     32                     33
                        a                      a                      a 
 Frequencies --   363.3272               371.3015               378.3412
 Red. masses --     9.9447                10.9462                 9.4475
 Frc consts  --     0.0000                 0.0000                 0.0000
 IR Inten    --     0.0076                 0.3410                 0.1802
 Raman Activ --     0.0000                 0.0000                 0.0000
 Depolar     --     0.0000                 0.0000                 0.0000
 Atom AN      X      Y      Z        X      Y      Z        X      Y      Z
   1   6     0.07   0.00   0.19    -0.07  -0.03   0.17    -0.06   0.01  -0.13
   2   6     0.13   0.01  -0.08    -0.01   0.17  -0.12    -0.09  -0.12   0.06
   3   6     0.04  -0.07  -0.08    -0.02   0.14  -0.12    -0.05  -0.04  -0.00
   4   6    -0.12  -0.17   0.09    -0.07   0.12  -0.07    -0.01   0.01  -0.09
   5   6    -0.12   0.13  -0.02    -0.08  -0.01   0.12    -0.03  -0.08  -0.03
   6   6    -0.04   0.15   0.04    -0.04  -0.08   0.21    -0.02  -0.02  -0.08
   7   6    -0.02   0.07   0.02    -0.03  -0.11  -0.06     0.01   0.02   0.05
   8   6    -0.05   0.08   0.05    -0.07  -0.07  -0.02     0.10  -0.03  -0.01
   9   6     0.04   0.05   0.00     0.08  -0.05   0.02    -0.01  -0.02   0.05
  10   6    -0.03   0.08   0.04     0.09  -0.03  -0.04    -0.07   0.02   0.04
  11   6    -0.03   0.07   0.05    -0.05  -0.05   0.02     0.09   0.05  -0.06
  12   6     0.04   0.05  -0.04    -0.06  -0.06  -0.08     0.01   0.05  -0.01
  13   6    -0.11  -0.13   0.02     0.07   0.05   0.11    -0.01  -0.03   0.03
  14   6     0.02   0.04   0.12    -0.13  -0.01   0.04     0.01  -0.02   0.03
  15   6    -0.01   0.09   0.05    -0.15  -0.02   0.01    -0.02  -0.00  -0.02
  16   6    -0.13   0.06  -0.11    -0.12  -0.01   0.05    -0.03  -0.00   0.02
  17   6     0.10  -0.02  -0.09     0.07   0.04   0.10     0.02   0.01   0.04
  18   6     0.07  -0.09  -0.04     0.12   0.06   0.08    -0.01  -0.02   0.05
  19   6     0.03  -0.06  -0.04     0.05  -0.07   0.01     0.08   0.06   0.03
  20   6     0.03  -0.07  -0.03     0.06  -0.07   0.01     0.08  -0.02  -0.07
  21   6     0.03  -0.03   0.05     0.08  -0.00  -0.04     0.08  -0.02   0.03
  22   6     0.03  -0.07  -0.04     0.01  -0.02  -0.02     0.06   0.00   0.14
  23   6     0.03  -0.07  -0.04    -0.00  -0.03  -0.01    -0.06  -0.05  -0.14
  24   6     0.05  -0.02   0.03    -0.04  -0.08   0.02    -0.03  -0.00  -0.06
  25   6    -0.09   0.08  -0.13     0.05   0.12  -0.03    -0.03   0.06  -0.08
  26   6    -0.04  -0.13  -0.01     0.02   0.02   0.12    -0.05  -0.06   0.06
  27   6     0.05  -0.11  -0.03    -0.02  -0.04   0.16    -0.05  -0.07   0.05
  28   6     0.14   0.05  -0.11     0.00   0.01   0.15    -0.02   0.00   0.03
  29   6     0.03   0.05   0.12     0.04   0.13  -0.08    -0.02   0.06  -0.01
  30   6    -0.05   0.07   0.07     0.04   0.11  -0.09    -0.01   0.07  -0.04
  31   6    -0.04   0.08   0.05     0.01  -0.08   0.01     0.02  -0.00  -0.01
  32   6    -0.03   0.07   0.05     0.06   0.01  -0.03     0.05   0.01  -0.03
  33   6    -0.07  -0.03   0.01     0.02  -0.01  -0.11     0.00  -0.06  -0.04
  34   6    -0.05   0.05   0.03     0.08  -0.04  -0.09     0.02  -0.00  -0.05
  35   6    -0.04   0.09   0.04     0.07  -0.02  -0.07     0.03   0.08  -0.05
  36   6    -0.05  -0.01   0.05     0.05  -0.08   0.05    -0.00  -0.02  -0.01
  37   6    -0.05  -0.14   0.02    -0.17   0.04  -0.05    -0.08  -0.03   0.05
  38   6     0.08   0.04   0.18     0.09   0.13   0.03     0.04   0.04   0.10
  39   6    -0.10   0.09   0.06     0.18   0.10   0.08     0.02   0.06   0.07
  40   6    -0.11   0.12  -0.04     0.10   0.11   0.04     0.02   0.07   0.08
  41   6     0.19   0.08  -0.07    -0.17   0.04  -0.05    -0.02   0.03   0.03
  42   6     0.02  -0.09  -0.06    -0.18   0.01  -0.05    -0.09  -0.04   0.02
  43   6     0.03  -0.09  -0.06    -0.05  -0.04  -0.11     0.29  -0.13   0.01
  44   6     0.04  -0.08  -0.06    -0.01  -0.09  -0.10    -0.06   0.25  -0.11
  45   6    -0.01  -0.00  -0.10    -0.01  -0.14  -0.00     0.01   0.06   0.09
  46   6     0.04  -0.10  -0.06    -0.02  -0.02  -0.07     0.15  -0.19   0.25
  47   6     0.07  -0.11  -0.05     0.06  -0.03  -0.02    -0.27   0.08  -0.17
  48   6    -0.03  -0.04  -0.08     0.12  -0.02  -0.04    -0.00  -0.04  -0.11
[...]
   2   6     0.00   0.00   0.00    -0.00  -0.00  -0.00    -0.00  -0.01  -0.01
   3   6    -0.00  -0.00  -0.00    -0.00   0.00  -0.00    -0.00  -0.00  -0.00
   4   6    -0.00   0.00   0.00    -0.00   0.00   0.00     0.00  -0.00  -0.00
   5   6     0.00   0.00   0.00     0.00   0.00   0.00     0.00   0.00   0.00
   6   6     0.00   0.00   0.00     0.00   0.00   0.00     0.00   0.00   0.00
   7   6     0.00  -0.00   0.00     0.00  -0.01   0.00     0.00  -0.03   0.01
   8   6    -0.00  -0.00  -0.00    -0.01  -0.01  -0.01    -0.03  -0.06  -0.04
   9   6    -0.00  -0.00  -0.00    -0.00   0.00  -0.00    -0.00  -0.00  -0.00
  10   6     0.00  -0.00   0.00    -0.00   0.02  -0.01    -0.00   0.00  -0.00
  11   6     0.00   0.00   0.00     0.01   0.01   0.01     0.00   0.00   0.00
  12   6     0.00   0.00   0.00     0.00  -0.00   0.00     0.00   0.00   0.00
  13   6     0.00  -0.00  -0.00     0.01  -0.01  -0.02    -0.01   0.01   0.01
  14   6     0.00  -0.01   0.00     0.01  -0.05   0.01    -0.00   0.03  -0.00
  15   6    -0.00   0.00   0.00    -0.00  -0.00   0.00     0.00   0.00  -0.00
  16   6    -0.00   0.00   0.00     0.01  -0.01  -0.01     0.03  -0.06  -0.06
  17   6     0.00  -0.01   0.00     0.01  -0.04   0.01     0.06  -0.22   0.04
  18   6     0.00  -0.00   0.00    -0.00   0.00   0.00    -0.00  -0.00   0.01
  19   6     0.01  -0.00  -0.00     0.05  -0.02  -0.01    -0.01   0.00   0.00
  20   6     0.00  -0.02   0.00     0.02  -0.08   0.02    -0.00   0.02  -0.01
  21   6    -0.00  -0.00   0.00    -0.00  -0.00   0.00    -0.00  -0.00   0.00
  22   6    -0.02   0.01   0.00    -0.01   0.00  -0.00    -0.04   0.02   0.00
  23   6    -0.01   0.04  -0.02    -0.00   0.01  -0.00    -0.00   0.01  -0.00
  24   6     0.00   0.00  -0.00     0.00   0.00  -0.00     0.00  -0.00  -0.00
  25   6     0.01  -0.09  -0.05    -0.00   0.02   0.01    -0.00   0.01   0.00
  26   6     0.19  -0.11  -0.02    -0.02   0.01   0.00    -0.00   0.00   0.00
  27   6     0.01   0.00   0.00    -0.00   0.00  -0.00     0.00  -0.00   0.00
  28   6    -0.00  -0.00  -0.00     0.01  -0.08  -0.05    -0.00   0.01   0.01
  29   6     0.02  -0.01  -0.00     0.19  -0.09  -0.05    -0.04   0.02   0.01
  30   6    -0.00  -0.00  -0.00     0.01   0.00   0.00    -0.00  -0.00  -0.00
  31   6     0.00  -0.00  -0.00    -0.01   0.00   0.00     0.00  -0.00  -0.00
  32   6    -0.01   0.00   0.01    -0.02   0.00   0.04     0.00  -0.00  -0.01
  33   6     0.00  -0.00   0.00     0.00  -0.00   0.00     0.00  -0.00  -0.00
  34   6     0.04  -0.02  -0.01     0.00  -0.00  -0.00     0.01  -0.00  -0.00
  35   6     0.03  -0.02  -0.07     0.00  -0.00   0.00     0.00  -0.00  -0.00
  36   6    -0.00  -0.00  -0.00    -0.00  -0.00  -0.00    -0.00   0.00   0.00
  37   6    -0.01   0.01   0.04     0.01  -0.01  -0.03     0.01  -0.01  -0.02
  38   6    -0.02   0.04   0.01     0.01  -0.02  -0.00     0.01  -0.02  -0.00
  39   6     0.00   0.00  -0.00    -0.00  -0.00   0.00    -0.00  -0.00   0.00
  40   6     0.00  -0.00  -0.01     0.00  -0.00  -0.00     0.00  -0.00  -0.00
  41   6     0.00  -0.00  -0.00    -0.00   0.01   0.00     0.00  -0.00   0.00
  42   6     0.00  -0.00   0.00    -0.00   0.00  -0.00    -0.00   0.00  -0.00
  43   6     0.01   0.02   0.01    -0.00  -0.00  -0.00    -0.00  -0.00  -0.00
  44   6    -0.00   0.00   0.01    -0.00   0.00   0.00    -0.00  -0.00  -0.00
  45   6    -0.00  -0.00   0.00     0.00   0.00   0.00     0.00  -0.00  -0.00
  46   6    -0.00  -0.00  -0.00     0.00   0.00   0.00     0.00   0.00   0.00
  47   6     0.00  -0.00  -0.01    -0.00   0.00   0.01    -0.00   0.00   0.01
  48   6     0.00   0.00  -0.00    -0.00  -0.00   0.00    -0.00  -0.00   0.00
  49   1    -0.00   0.00   0.00     0.00  -0.00  -0.00    -0.02   0.02   0.01
  50   1    -0.00  -0.00  -0.00     0.00   0.00   0.00     0.02   0.04   0.04
  51   1     0.01  -0.01  -0.00     0.01  -0.01  -0.00    -0.00   0.00   0.00
  52   1    -0.01  -0.01  -0.01    -0.00  -0.00  -0.00    -0.00  -0.00  -0.00
  53   1    -0.00   0.00  -0.00    -0.00   0.02  -0.00    -0.02   0.11  -0.02
  54   1     0.01   0.01   0.01     0.02   0.05   0.03     0.11   0.21   0.15
  55   1    -0.00   0.00  -0.00     0.00  -0.07   0.02     0.00  -0.01   0.00
  56   1    -0.00  -0.00  -0.00    -0.02  -0.03  -0.02    -0.00  -0.01  -0.00
  57   1    -0.00   0.00   0.00    -0.03   0.05   0.05     0.02  -0.04  -0.05
  58   1    -0.00   0.03  -0.00    -0.02   0.18  -0.03     0.01  -0.10   0.02
  59   1     0.00  -0.00  -0.00    -0.02   0.03   0.04    -0.11   0.18   0.20
  60   1    -0.01   0.05  -0.01    -0.04   0.14  -0.03    -0.19   0.77  -0.16
  61   1    -0.03   0.02   0.00    -0.17   0.08   0.02     0.04  -0.02  -0.00
  62   1    -0.01   0.06  -0.02    -0.06   0.29  -0.08     0.01  -0.06   0.02
  63   1     0.07  -0.03  -0.00     0.03  -0.02  -0.00     0.14  -0.06  -0.00
  64   1     0.04  -0.14   0.05     0.00  -0.02   0.01     0.01  -0.04   0.01
  65   1    -0.03   0.30   0.18     0.01  -0.05  -0.03     0.00  -0.02  -0.01
  66   1    -0.67   0.38   0.07     0.08  -0.05  -0.01     0.01  -0.00  -0.00
  67   1    -0.00   0.02   0.01    -0.03   0.25   0.16     0.01  -0.05  -0.03
  68   1    -0.07   0.04   0.02    -0.67   0.32   0.15     0.13  -0.06  -0.03
  69   1    -0.01   0.00   0.00     0.05  -0.02  -0.01    -0.01   0.00   0.00
  70   1     0.02  -0.01  -0.05     0.06  -0.02  -0.13    -0.02   0.00   0.03
  71   1    -0.13   0.05   0.02    -0.02   0.01   0.00    -0.02   0.01   0.00
  72   1    -0.11   0.06   0.26     0.00  -0.00  -0.00    -0.00   0.00   0.01
  73   1     0.05  -0.04  -0.13    -0.03   0.03   0.10    -0.03   0.03   0.08
  74   1     0.06  -0.15  -0.03    -0.03   0.08   0.02    -0.02   0.07   0.01
  75   1    -0.01   0.01   0.02    -0.01   0.00   0.02    -0.00   0.00   0.00
  76   1    -0.00   0.01   0.00     0.01  -0.02  -0.00    -0.00   0.00   0.00
  77   1    -0.02  -0.06  -0.04     0.00   0.01   0.01     0.00   0.00   0.00
  78   1     0.01  -0.01  -0.03     0.00  -0.00  -0.00    -0.00   0.00   0.00
  79   1     0.01   0.01   0.01    -0.00  -0.01  -0.01    -0.00  -0.00  -0.00
  80   1    -0.01   0.01   0.03     0.01  -0.00  -0.02     0.01  -0.01  -0.03
                    229                    230                    231
                        a                      a                      a 
 Frequencies --  3070.1895              3073.0195              3074.3328
 Red. masses --     1.8640                 1.8550                 1.8623
 Frc consts  --     0.0000                 0.0000                 0.0000
 IR Inten    --    48.9363                48.1290                62.5638
 Raman Activ --     0.0000                 0.0000                 0.0000
 Depolar     --     0.0000                 0.0000                 0.0000
 Atom AN      X      Y      Z        X      Y      Z        X      Y      Z
   1   6     0.00  -0.00  -0.00     0.00  -0.00  -0.00     0.00  -0.00  -0.00
   2   6    -0.00  -0.00  -0.00    -0.00  -0.00  -0.00    -0.00  -0.00  -0.00
   3   6    -0.00   0.00  -0.00     0.00  -0.00  -0.00    -0.00   0.00  -0.00
   4   6    -0.00   0.00   0.00     0.01  -0.01  -0.01     0.00  -0.00  -0.00
   5   6     0.00   0.00   0.00    -0.00  -0.01  -0.01    -0.00  -0.00  -0.00
   6   6     0.00  -0.00  -0.00    -0.00   0.00   0.00    -0.00  -0.00  -0.00
   7   6     0.00  -0.01   0.00     0.00   0.00   0.00    -0.00   0.00  -0.00
   8   6    -0.01  -0.01  -0.01     0.00   0.00   0.00     0.00   0.00   0.00
   9   6    -0.00   0.00  -0.00     0.00  -0.00   0.01    -0.00   0.00  -0.00
  10   6    -0.00   0.01  -0.00     0.01  -0.23   0.06    -0.00   0.01  -0.00
  11   6     0.00   0.00   0.00    -0.05  -0.09  -0.05     0.00   0.00   0.00
  12   6     0.00  -0.00   0.00    -0.00   0.00  -0.00    -0.00  -0.00   0.00
  13   6     0.00  -0.00  -0.00     0.02  -0.04  -0.04    -0.00   0.00   0.00
  14   6     0.00  -0.00   0.00     0.00  -0.04   0.01    -0.00   0.01  -0.00
  15   6     0.00   0.00  -0.00    -0.00   0.00   0.00    -0.00   0.00   0.00
  16   6     0.01  -0.01  -0.01     0.00  -0.00  -0.00    -0.00   0.01   0.01
  17   6     0.01  -0.03   0.01     0.00  -0.02   0.00    -0.00   0.01  -0.00
  18   6    -0.00  -0.00   0.00     0.00  -0.00  -0.00     0.00  -0.00  -0.00
  19   6     0.01  -0.00  -0.00     0.01  -0.00  -0.00    -0.00   0.00   0.00
  20   6     0.00  -0.01   0.00     0.00  -0.01   0.00    -0.00   0.01  -0.00
  21   6    -0.00   0.00   0.00    -0.00  -0.00   0.00    -0.00  -0.00   0.00
  22   6     0.00  -0.00  -0.00    -0.00   0.00   0.00    -0.06   0.03   0.00
  23   6     0.00  -0.01   0.00     0.00  -0.00   0.00    -0.01   0.05  -0.02
  24   6     0.00  -0.00  -0.00     0.00  -0.00  -0.00     0.00   0.00  -0.00
  25   6    -0.00   0.02   0.01    -0.00   0.00   0.00    -0.00   0.01   0.01
  26   6    -0.04   0.02   0.00    -0.00   0.00   0.00    -0.01   0.01   0.00
  27   6    -0.00  -0.00  -0.00    -0.00   0.00  -0.00     0.00   0.00   0.00
  28   6     0.00  -0.01  -0.01     0.00  -0.00  -0.00    -0.00   0.03   0.02
  29   6     0.02  -0.01  -0.00     0.00  -0.00  -0.00    -0.03   0.01   0.01
  30   6     0.00   0.00   0.00     0.00   0.00   0.00    -0.00  -0.00  -0.00
  31   6     0.01  -0.00  -0.00    -0.01   0.00   0.00    -0.16   0.05   0.03
  32   6     0.00  -0.00  -0.00    -0.00   0.00   0.01    -0.08   0.02   0.16
  33   6    -0.00   0.00  -0.00     0.00  -0.00   0.00     0.00  -0.00   0.00
  34   6    -0.06   0.03   0.01    -0.00   0.00   0.00     0.00  -0.00  -0.00
  35   6    -0.02   0.01   0.04    -0.00   0.00   0.00     0.00  -0.00   0.00
  36   6     0.00  -0.00   0.00    -0.00  -0.00  -0.00    -0.00   0.00  -0.00
  37   6    -0.06   0.06   0.17    -0.00   0.00   0.00    -0.00   0.00   0.01
  38   6    -0.06   0.14   0.03    -0.00   0.00   0.00    -0.00   0.01   0.00
  39   6     0.00   0.00  -0.00    -0.00  -0.00   0.00     0.00   0.00  -0.00
  40   6    -0.00  -0.00   0.00    -0.00   0.00   0.00     0.02  -0.01  -0.03
  41   6     0.00  -0.00  -0.00    -0.00   0.00   0.00    -0.00   0.01   0.00
  42   6     0.00  -0.00   0.00     0.00  -0.00   0.00    -0.00   0.00   0.00
  43   6     0.01   0.02   0.02    -0.00  -0.00  -0.00    -0.00  -0.01  -0.01
  44   6    -0.00   0.00   0.01     0.00  -0.00  -0.00     0.00  -0.00  -0.00
  45   6    -0.00  -0.00   0.00    -0.00   0.00  -0.00     0.00   0.00   0.00
  46   6    -0.01  -0.01  -0.01    -0.00  -0.00  -0.00    -0.00  -0.00  -0.00
  47   6     0.02  -0.01  -0.04     0.00  -0.00  -0.00     0.00  -0.00  -0.00
  48   6     0.00   0.00  -0.00     0.00   0.00  -0.00    -0.00  -0.00   0.00
  49   1    -0.01   0.01   0.01    -0.00   0.00   0.00    -0.00   0.00   0.00
  50   1     0.00   0.01   0.01     0.00   0.01   0.01     0.00   0.00   0.00
  51   1     0.00  -0.00  -0.00    -0.04   0.04   0.02    -0.00   0.00   0.00
  52   1    -0.00  -0.01  -0.00     0.01   0.02   0.02     0.00   0.00   0.00
  53   1    -0.00   0.02  -0.00     0.00  -0.01   0.00     0.00  -0.00   0.00
  54   1     0.02   0.03   0.02    -0.01  -0.01  -0.01    -0.00  -0.00  -0.00
  55   1     0.00  -0.02   0.01    -0.05   0.80  -0.22     0.00  -0.02   0.00
  56   1    -0.01  -0.01  -0.01     0.19   0.30   0.19    -0.00  -0.00  -0.00
  57   1    -0.00   0.00   0.00    -0.07   0.12   0.13     0.00  -0.01  -0.01
  58   1    -0.00   0.01  -0.00    -0.02   0.13  -0.02     0.00  -0.02   0.00
  59   1    -0.02   0.03   0.03    -0.01   0.01   0.01     0.01  -0.02  -0.02
  60   1    -0.03   0.11  -0.02    -0.01   0.06  -0.01     0.01  -0.03   0.01
  61   1    -0.02   0.01   0.00    -0.03   0.01   0.00     0.01  -0.01  -0.00
  62   1    -0.00   0.02  -0.01    -0.00   0.02  -0.01     0.00  -0.02   0.01
  63   1    -0.01   0.00   0.00     0.00  -0.00  -0.00     0.21  -0.09  -0.00
  64   1    -0.01   0.03  -0.01    -0.00   0.01  -0.00     0.04  -0.16   0.06
  65   1     0.01  -0.06  -0.04     0.00  -0.00  -0.00     0.00  -0.04  -0.03
  66   1     0.13  -0.08  -0.01     0.01  -0.00  -0.00     0.05  -0.03  -0.01
  67   1    -0.00   0.03   0.02    -0.00   0.00   0.00     0.01  -0.10  -0.07
  68   1    -0.07   0.03   0.02    -0.02   0.01   0.00     0.10  -0.05  -0.02
  69   1    -0.03   0.01   0.00     0.02  -0.01  -0.00     0.57  -0.18  -0.09
  70   1    -0.00   0.00   0.00     0.01  -0.00  -0.02     0.28  -0.07  -0.57
  71   1     0.22  -0.09  -0.03     0.00  -0.00  -0.00    -0.01   0.00   0.00
  72   1     0.06  -0.03  -0.13     0.00  -0.00  -0.00    -0.00  -0.00  -0.00
  73   1     0.21  -0.19  -0.61     0.00  -0.00  -0.01     0.01  -0.01  -0.04
  74   1     0.19  -0.50  -0.11     0.00  -0.00  -0.00     0.01  -0.02  -0.00
  75   1     0.00  -0.00  -0.01     0.00  -0.00  -0.01    -0.06   0.04   0.12
  76   1    -0.00   0.01   0.00     0.00  -0.01  -0.00     0.02  -0.05  -0.01
  77   1    -0.03  -0.07  -0.05     0.00   0.01   0.01     0.02   0.04   0.03
  78   1     0.01  -0.01  -0.02    -0.01   0.00   0.01    -0.01   0.00   0.01
  79   1     0.02   0.05   0.03     0.00   0.00   0.00     0.00   0.00   0.00
  80   1    -0.06   0.04   0.15    -0.01   0.00   0.01    -0.00   0.00   0.00
                    232                    233                    234
                        a                      a                      a 
 Frequencies --  3074.4540              3078.8472              3081.8937
 Red. masses --     1.8636                 1.8411                 1.8389
 Frc consts  --     0.0000                 0.0000                 0.0000
 IR Inten    --    25.8204                49.4430                44.2948
 Raman Activ --     0.0000                 0.0000                 0.0000
 Depolar     --     0.0000                 0.0000                 0.0000
 Atom AN      X      Y      Z        X      Y      Z        X      Y      Z
   1   6     0.00  -0.00  -0.00     0.00  -0.00  -0.00     0.01  -0.01  -0.01
   2   6    -0.00  -0.00  -0.00    -0.00  -0.00  -0.00    -0.00  -0.00  -0.00
   3   6    -0.00   0.00   0.00    -0.00  -0.00  -0.00    -0.00   0.00  -0.00
   4   6    -0.00   0.00   0.00    -0.00   0.00   0.00    -0.00   0.00   0.00
   5   6     0.00   0.00   0.00     0.00   0.00   0.00    -0.00  -0.00  -0.00
   6   6     0.00   0.00  -0.00     0.00   0.00   0.00     0.00  -0.00  -0.00
   7   6     0.00  -0.00   0.00     0.00  -0.00   0.00     0.00  -0.00   0.00
   8   6    -0.00  -0.01  -0.00    -0.00  -0.00  -0.00    -0.00  -0.00  -0.00
   9   6    -0.00  -0.00  -0.00    -0.00   0.00  -0.00    -0.00   0.00  -0.00
  10   6    -0.00   0.01  -0.00    -0.00   0.00  -0.00    -0.00   0.00  -0.00
  11   6     0.00   0.00   0.00     0.00   0.00   0.00     0.00   0.00   0.00
  12   6     0.00  -0.00   0.00    -0.00  -0.00   0.00    -0.00  -0.00   0.00
  13   6    -0.00   0.00   0.00    -0.00   0.00   0.00    -0.00   0.00   0.00
  14   6     0.00  -0.00   0.00     0.00  -0.00   0.00    -0.00   0.00  -0.00
  15   6     0.00  -0.00  -0.00    -0.00  -0.00  -0.00     0.00   0.00  -0.00
  16   6     0.01  -0.02  -0.02     0.00  -0.00  -0.00    -0.00  -0.00  -0.00
  17   6     0.01  -0.03   0.01     0.00  -0.00   0.00     0.00  -0.00   0.00
  18   6    -0.00  -0.00   0.00     0.00   0.00   0.00    -0.00   0.00   0.00
  19   6    -0.00   0.00  -0.00    -0.00   0.00  -0.00    -0.00   0.00   0.00
  20   6    -0.00   0.01  -0.00    -0.00   0.00  -0.00    -0.00   0.00  -0.00
  21   6     0.00   0.00  -0.00     0.00   0.00  -0.00     0.00   0.00  -0.00
  22   6     0.18  -0.08  -0.00     0.00  -0.00  -0.00     0.00  -0.00  -0.00
  23   6     0.04  -0.15   0.05     0.00  -0.00   0.00     0.00  -0.00   0.00
  24   6    -0.00  -0.00   0.00    -0.00  -0.00   0.00    -0.00  -0.00  -0.00
  25   6     0.00  -0.03  -0.02     0.00  -0.00  -0.00     0.00  -0.00  -0.00
  26   6     0.02  -0.01  -0.00     0.00  -0.00  -0.00     0.00  -0.00  -0.00
  27   6     0.00   0.00   0.00     0.00   0.00   0.00     0.00   0.00   0.00
  28   6    -0.00   0.01   0.00    -0.00   0.00   0.00     0.00  -0.00  -0.00
  29   6    -0.00   0.00   0.00    -0.00   0.00   0.00    -0.00   0.00   0.00
  30   6    -0.00  -0.00  -0.00    -0.00  -0.00  -0.00    -0.00  -0.00   0.00
  31   6    -0.05   0.02   0.01    -0.02   0.01   0.00    -0.00   0.00   0.00
  32   6    -0.03   0.01   0.06    -0.02   0.00   0.03     0.00  -0.00  -0.00
  33   6     0.00  -0.00   0.00     0.00  -0.00   0.00     0.00  -0.00  -0.00
  34   6     0.01  -0.00  -0.00     0.00  -0.00  -0.00     0.00  -0.00  -0.00
  35   6     0.00  -0.00  -0.01     0.00  -0.00  -0.00     0.00  -0.00  -0.00
  36   6    -0.00   0.00  -0.00    -0.00   0.00  -0.00    -0.00   0.00  -0.00
  37   6    -0.00   0.00   0.00     0.00  -0.00  -0.00     0.01  -0.01  -0.02
  38   6    -0.00   0.00   0.00     0.01  -0.01  -0.00     0.02  -0.05  -0.01
  39   6     0.00   0.00  -0.00    -0.00  -0.01   0.01     0.00  -0.00  -0.00
  40   6     0.01  -0.01  -0.02    -0.11   0.07   0.22     0.01  -0.01  -0.02
  41   6    -0.00   0.00   0.00    -0.02   0.07   0.02     0.00  -0.00  -0.00
  42   6    -0.00   0.00   0.00     0.00   0.00  -0.00    -0.00   0.00   0.00
  43   6    -0.00  -0.00  -0.00     0.02   0.05   0.04    -0.00   0.00   0.00
  44   6     0.00  -0.00  -0.00    -0.01   0.01   0.02     0.00   0.00   0.00
  45   6     0.00   0.00   0.00    -0.00  -0.00  -0.00    -0.00   0.00   0.00
  46   6    -0.00  -0.00  -0.00    -0.00  -0.00  -0.00    -0.02  -0.05  -0.04
  47   6    -0.00   0.00   0.00     0.01  -0.00  -0.02     0.09  -0.06  -0.23
  48   6    -0.00  -0.00   0.00     0.00   0.00  -0.00     0.01   0.00  -0.00
  49   1    -0.00   0.00   0.00    -0.00   0.00   0.00    -0.03   0.03   0.02
  50   1     0.00   0.00   0.00     0.00   0.00   0.00     0.01   0.01   0.01
  51   1     0.00  -0.00  -0.00     0.01  -0.01  -0.00     0.00  -0.00  -0.00
  52   1    -0.00  -0.00  -0.00    -0.01  -0.01  -0.01     0.00   0.00   0.00
  53   1    -0.00   0.01  -0.00    -0.00   0.00  -0.00    -0.00   0.00  -0.00
  54   1     0.01   0.02   0.02     0.00   0.00   0.00     0.00   0.00   0.00
  55   1     0.00  -0.02   0.00     0.00  -0.01   0.00     0.00  -0.01   0.00
  56   1    -0.01  -0.01  -0.01    -0.00  -0.00  -0.00    -0.00  -0.00  -0.00
  57   1     0.00  -0.00  -0.00     0.00  -0.00  -0.00     0.00  -0.00  -0.00
  58   1    -0.00   0.01  -0.00    -0.00   0.00  -0.00     0.00  -0.00   0.00
  59   1    -0.04   0.07   0.08    -0.00   0.00   0.00    -0.00   0.00   0.00
  60   1    -0.03   0.11  -0.02    -0.00   0.01  -0.00    -0.00   0.00  -0.00
  61   1     0.01  -0.01  -0.00     0.00  -0.00  -0.00     0.00  -0.00  -0.00
  62   1     0.01  -0.02   0.01     0.00  -0.00   0.00     0.00  -0.00   0.00
  63   1    -0.63   0.28   0.01    -0.01   0.00   0.00    -0.00   0.00   0.00
  64   1    -0.12   0.50  -0.19    -0.00   0.01  -0.00    -0.00   0.00  -0.00
  65   1    -0.01   0.12   0.07    -0.00   0.01   0.00    -0.00   0.00   0.00
  66   1    -0.08   0.04   0.01    -0.00   0.00   0.00    -0.00   0.00   0.00
  67   1     0.00  -0.03  -0.02     0.00  -0.01  -0.01    -0.00   0.00   0.00
  68   1     0.00  -0.00  -0.00     0.01  -0.01  -0.00     0.00  -0.00  -0.00
  69   1     0.18  -0.06  -0.03     0.08  -0.03  -0.01     0.00  -0.00  -0.00
  70   1     0.09  -0.02  -0.20     0.05  -0.01  -0.11    -0.00   0.00   0.01
  71   1    -0.02   0.01   0.00    -0.00   0.00   0.00    -0.01   0.01   0.00
  72   1    -0.01   0.01   0.02    -0.00   0.00   0.01    -0.00   0.00   0.01
  73   1     0.00  -0.00  -0.00    -0.01   0.00   0.01    -0.02   0.02   0.07
  74   1     0.00  -0.00  -0.00    -0.02   0.04   0.01    -0.07   0.19   0.04
  75   1    -0.03   0.02   0.06     0.38  -0.23  -0.76    -0.03   0.02   0.06
  76   1     0.01  -0.01  -0.00     0.08  -0.21  -0.05    -0.01   0.02   0.00
  77   1     0.01   0.02   0.01    -0.07  -0.20  -0.13    -0.00  -0.01  -0.01
  78   1    -0.00   0.00   0.00     0.02  -0.02  -0.05    -0.00   0.00   0.00
  79   1     0.00   0.00   0.00     0.00   0.01   0.01     0.07   0.17   0.12
  80   1     0.00  -0.00  -0.01    -0.02   0.01   0.05    -0.32   0.21   0.82
